 (written by mofun)

672 atoms
0 bonds
0 angles
0 dihedrals
0 impropers

4 atom types
   0.000000  20.700400 xlo xhi
   0.000000  20.700400 ylo yhi
   0.000000  20.700400 zlo zhi

Masses

 1 91.2240   # Zr3+4
 2 15.9994   # O_3
 3 12.0107   # C_3
 4 1.0079   # H_

Pair Coeffs

 1   0.069000   2.783168 # Zr3+4
 2   0.060000   3.118146 # O_3
 3   0.105000   3.430851 # C_3
 4   0.044000   2.571134 # H_

Atoms

 1 1 1   3.171190   2.481771   0.000000   0.000000   # Zr3+4
 2 1 1   3.190690   2.481771  10.350200  10.350200   # Zr3+4
 3 1 1   3.178860  12.831971   0.000000  10.350200   # Zr3+4
 4 1 1   3.181920  12.831971  10.350200   0.000000   # Zr3+4
 5 1 1   3.169260  18.218629   0.000000   0.000000   # Zr3+4
 6 1 1   3.191200  18.218629  10.350200  10.350200   # Zr3+4
 7 1 1   3.180340   7.868429   0.000000  10.350200   # Zr3+4
 8 1 1   3.179390   7.868429  10.350200   0.000000   # Zr3+4
 9 1 1   3.171050   0.000000   2.481771   0.000000   # Zr3+4
 10 1 1   3.146540   0.000000  12.831971  10.350200   # Zr3+4
 11 1 1   3.190730  10.350200   2.481771  10.350200   # Zr3+4
 12 1 1   3.182020  10.350200  12.831971   0.000000   # Zr3+4
 13 1 1   3.169220   0.000000  18.218629   0.000000   # Zr3+4
 14 1 1   3.212510   0.000000   7.868429  10.350200   # Zr3+4
 15 1 1   3.191100  10.350200  18.218629  10.350200   # Zr3+4
 16 1 1   3.179490  10.350200   7.868429   0.000000   # Zr3+4
 17 1 1   3.202140   0.000000   0.000000   2.481771   # Zr3+4
 18 1 1   3.178620   0.000000  10.350200  12.831971   # Zr3+4
 19 1 1   3.146630  10.350200   0.000000  12.831971   # Zr3+4
 20 1 1   3.191270  10.350200  10.350200   2.481771   # Zr3+4
 21 1 1   3.137540   0.000000   0.000000  18.218629   # Zr3+4
 22 1 1   3.180410   0.000000  10.350200   7.868429   # Zr3+4
 23 1 1   3.212660  10.350200   0.000000   7.868429   # Zr3+4
 24 1 1   3.191710  10.350200  10.350200  18.218629   # Zr3+4
 25 1 2  -1.308720   1.161292   9.188908   9.188908   # O_3
 26 1 2  -1.225800  11.511492  19.539108   9.188908   # O_3
 27 1 2  -1.334280  11.511492   9.188908  19.539108   # O_3
 28 1 2  -1.308360   9.188908   1.161292   9.188908   # O_3
 29 1 2  -1.334140   9.188908  11.511492  19.539108   # O_3
 30 1 2  -1.188920  19.539108  19.539108   1.161292   # O_3
 31 1 2  -1.224920  19.539108   9.188908  11.511492   # O_3
 32 1 2  -1.353210   1.161292   1.161292   1.161292   # O_3
 33 1 2  -1.411680  11.511492  11.511492   1.161292   # O_3
 34 1 2  -1.357100  19.539108   1.161292   1.161292   # O_3
 35 1 2  -1.449920  19.539108  11.511492  11.511492   # O_3
 36 1 2  -1.533240   9.188908   1.161292  11.511492   # O_3
 37 1 2  -1.421130   9.188908  11.511492   1.161292   # O_3
 38 1 2  -1.359110   1.161292  19.539108   1.161292   # O_3
 39 1 2  -1.404970   1.161292   9.188908  11.511492   # O_3
 40 1 2  -1.451570  11.511492  19.539108  11.511492   # O_3
 41 1 2  -1.420930  11.511492   9.188908   1.161292   # O_3
 42 1 2  -1.324790  19.539108  19.539108  19.539108   # O_3
 43 1 2  -1.311870  19.539108   9.188908   9.188908   # O_3
 44 1 2  -1.313680   9.188908  19.539108   9.188908   # O_3
 45 1 2  -1.342010   9.188908   9.188908  19.539108   # O_3
 46 1 2  -1.487280   1.161292   1.161292  19.539108   # O_3
 47 1 2  -1.533630   1.161292  11.511492   9.188908   # O_3
 48 1 2  -1.404360  11.511492   1.161292   9.188908   # O_3
 49 1 3   0.533203   3.179581   0.000000  17.520819   # C_3
 50 1 2  -0.729175   3.528590   0.000000  18.727859   # O_3
 51 1 2  -0.788064   1.972541   0.000000  17.171810   # O_3
 52 1 3  -0.139052   4.243582   0.000000  16.456818   # C_3
 53 1 3  -0.018572   3.816533   0.000000  15.162836   # C_3
 54 1 4   0.021894   2.700574   0.000000  14.930785   # H_
 55 1 2  -0.059055   4.480188  20.342283  12.839423   # O_3
 56 1 3   0.062602   4.812636   0.000000  14.167768   # C_3
 57 1 3  -0.183822   6.106618   0.000000  14.593782   # C_3
 58 1 3   0.020349   6.532632   0.000000  15.887764   # C_3
 59 1 3  -0.002526   5.537564   0.000000  16.883867   # C_3
 60 1 4   0.022298   5.769615   0.000000  17.999826   # H_
 61 1 4   0.006946   7.648591   0.000000  16.119815   # H_
 62 1 2  -0.791392   8.377452   0.000000  13.878790   # O_3
 63 1 3   0.549291   7.170619   0.000000  13.529781   # C_3
 64 1 2  -0.778245   6.821610   0.000000  12.322741   # O_3
 65 1 3  -0.004190   4.101577   0.783717  12.114495   # C_3
 66 1 3  -0.327728   3.701232   0.103502  10.802297   # C_3
 67 1 4   0.040455   4.916138   1.549632  12.112218   # H_
 68 1 4   0.021494   3.150601   1.226292  12.545477   # H_
 69 1 4   0.172439   4.622606  20.670177  10.220822   # H_
 70 1 3  -0.063710   2.697262   0.852235   9.848008   # C_3
 71 1 4   0.162821   3.219947  19.804901  10.993982   # H_
 72 1 4   0.044617   2.890397   1.909198   9.581801   # H_
 73 1 4   0.004275   1.690188   0.790755  10.329707   # H_
 74 1 4  -0.008370   2.652549   0.308643   8.896618   # H_
 75 1 3   0.537127   3.179581  10.350200   7.170619   # C_3
 76 1 2  -0.655276   3.528590  10.350200   8.377659   # O_3
 77 1 2  -0.666699   1.972541  10.350200   6.821610   # O_3
 78 1 3  -0.107156   4.243582  10.350200   6.106618   # C_3
 79 1 3  -0.049305   3.816533  10.350200   4.812636   # C_3
 80 1 4   0.047715   2.700574  10.350200   4.580585   # H_
 81 1 2  -0.231243   4.425746   9.878852   2.540560   # O_3
 82 1 3   0.193568   4.812636  10.350200   3.817568   # C_3
 83 1 3  -0.217704   6.106618  10.350200   4.243582   # C_3
 84 1 3   0.055293   6.532632  10.350200   5.537564   # C_3
 85 1 3  -0.012047   5.537564  10.350200   6.533667   # C_3
 86 1 4   0.040312   5.769615  10.350200   7.649626   # H_
 87 1 4   0.024964   7.648591  10.350200   5.769615   # H_
 88 1 2  -0.749144   8.377452  10.350200   3.528590   # O_3
 89 1 3   0.569152   7.170619  10.350200   3.179581   # C_3
 90 1 2  -0.744895   6.821610  10.350200   1.972541   # O_3
 91 1 3   0.101770   3.981515  10.946786   1.730139   # C_3
 92 1 3  -0.299574   3.628366  10.333640   0.360187   # C_3
 93 1 4   0.011336   4.767095  11.702764   1.596622   # H_
 94 1 4  -0.003876   3.095331  11.416685   2.204386   # H_
 95 1 4   0.152885   4.607702  10.217510  20.513061   # H_
 96 1 3   0.002663   2.598521  11.074714  20.142317   # C_3
 97 1 4   0.077220   3.228227   9.316422   0.550838   # H_
 98 1 4   0.064953   2.962848  12.046184  19.836572   # H_
 99 1 4   0.053423   1.645682  11.175732  20.665830   # H_
 100 1 4   0.029893   2.533522  10.479992  19.214732   # H_
 101 1 3   0.540631  13.529781   0.000000   7.170619   # C_3
 102 1 2  -0.697315  13.878790   0.000000   8.377659   # O_3
 103 1 2  -0.691053  12.322741   0.000000   6.821610   # O_3
 104 1 3  -0.146840  14.593782   0.000000   6.106618   # C_3
 105 1 3  -0.006106  14.166733   0.000000   4.812636   # C_3
 106 1 4   0.015995  13.050774   0.000000   4.580585   # H_
 107 1 2  -0.019088  14.809480  20.182476   2.492121   # O_3
 108 1 3   0.048137  15.162629   0.000000   3.817568   # C_3
 109 1 3  -0.160050  16.456611   0.000000   4.243582   # C_3
 110 1 3   0.013145  16.882832   0.000000   5.537564   # C_3
 111 1 3   0.002358  15.887764   0.000000   6.533667   # C_3
 112 1 4   0.012299  16.119815   0.000000   7.649626   # H_
 113 1 4   0.022703  17.998791   0.000000   5.769615   # H_
 114 1 2  -0.639660  18.727652   0.000000   3.528590   # O_3
 115 1 3   0.544697  17.520612   0.000000   3.179581   # C_3
 116 1 2  -0.699282  17.171603   0.000000   1.972541   # O_3
 117 1 3  -0.186339  14.296524   0.443817   1.661828   # C_3
 118 1 3  -0.023446  13.946894  20.544733   0.285666   # C_3
 119 1 4   0.063836  15.073824   1.201658   1.533486   # H_
 120 1 4   0.038795  13.412410   0.898811   2.211217   # H_
 121 1 4   0.143864  14.862887  20.469177  20.327379   # H_
 122 1 3  -0.168902  12.900903   0.645645  20.272109   # C_3
 123 1 4   0.035015  13.555450  19.522133   0.431396   # H_
 124 1 4   0.107127  13.024278   1.727034  20.399623   # H_
 125 1 4   0.054220  11.914736   0.247991  20.559430   # H_
 126 1 4   0.042613  13.074166   0.371365  19.250544   # H_
 127 1 3   0.518907  13.529781  10.350200  17.520819   # C_3
 128 1 2  -0.687649  13.878790  10.350200  18.727859   # O_3
 129 1 2  -0.726631  12.322741  10.350200  17.171810   # O_3
 130 1 3  -0.098596  14.593782  10.350200  16.456818   # C_3
 131 1 3  -0.047644  14.166733  10.350200  15.162836   # C_3
 132 1 4   0.056227  13.050774  10.350200  14.930785   # H_
 133 1 2  -0.201470  14.773254   9.855667  12.874821   # O_3
 134 1 3   0.181923  15.162629  10.350200  14.167768   # C_3
 135 1 3  -0.196885  16.456611  10.350200  14.593782   # C_3
 136 1 3   0.058888  16.882832  10.350200  15.887764   # C_3
 137 1 3  -0.007520  15.887764  10.350200  16.883867   # C_3
 138 1 4   0.053908  16.119815  10.350200  17.999826   # H_
 139 1 4   0.034077  17.998791  10.350200  16.119815   # H_
 140 1 2  -0.618743  18.727652  10.350200  13.878790   # O_3
 141 1 3   0.566964  17.520612  10.350200  13.529781   # C_3
 142 1 2  -0.644324  17.171603  10.350200  12.322741   # O_3
 143 1 3   0.027830  14.246015  10.923394  12.103524   # C_3
 144 1 3  -0.047858  14.176876  10.347095  10.695690   # C_3
 145 1 4   0.034969  14.811757  11.859259  12.183427   # H_
 146 1 4   0.020004  13.241632  11.163312  12.460399   # H_
 147 1 4   0.005778  15.172979  10.438798  10.192256   # H_
 148 1 3  -0.146669  13.052637  10.813682   9.773694   # C_3
 149 1 4   0.052563  13.900526   9.290961  10.823825   # H_
 150 1 4   0.063004  13.263574  11.879132   9.467535   # H_
 151 1 4   0.046391  12.062330  10.658843  10.264707   # H_
 152 1 4   0.053774  13.067542  10.177766   8.872191   # H_
 153 1 3   0.519142  17.520819   0.000000  17.520819   # C_3
 154 1 2  -0.728290  17.171810   0.000000  18.727859   # O_3
 155 1 2  -0.726202  18.727859   0.000000  17.171810   # O_3
 156 1 3  -0.104921  16.456818   0.000000  16.456818   # C_3
 157 1 3  -0.059159  16.883867   0.000000  15.162836   # C_3
 158 1 4   0.045324  17.999826   0.000000  14.930785   # H_
 159 1 2  -0.282668  16.277346   0.277385  12.787465   # O_3
 160 1 3   0.173397  15.887971   0.000000  14.167768   # C_3
 161 1 3  -0.228402  14.593989   0.000000  14.593782   # C_3
 162 1 3   0.051441  14.167768   0.000000  15.887764   # C_3
 163 1 3  -0.020442  15.162836   0.000000  16.883867   # C_3
 164 1 4   0.030157  14.930785   0.000000  17.999826   # H_
 165 1 4   0.010097  13.051809   0.000000  16.119815   # H_
 166 1 2  -0.795344  12.322948   0.000000  13.878790   # O_3
 167 1 3   0.567777  13.529988   0.000000  13.529781   # C_3
 168 1 2  -0.777508  13.878997   0.000000  12.322741   # O_3
 169 1 3   0.151152  16.691768  19.781302  12.149893   # C_3
 170 1 3  -0.090830  18.224425  19.524410  12.330193   # C_3
 171 1 4   0.035386  16.434462  19.956428  11.101004   # H_
 172 1 4   0.037866  16.093733  18.894704  12.465988   # H_
 173 1 4   0.118026  18.764913  20.474145  12.192536   # H_
 174 1 3  -0.145685  18.814801  18.570950  11.314425   # C_3
 175 1 4   0.098272  18.485871  19.156978  13.352586   # H_
 176 1 4   0.095846  19.009177  17.597824  11.717461   # H_
 177 1 4   0.113824  19.754599  19.050578  10.921324   # H_
 178 1 4   0.072481  18.150732  18.518785  10.434451   # H_
 179 1 3   0.519603  17.520819  10.350200   7.170619   # C_3
 180 1 2  -0.727562  17.171810  10.350200   8.377659   # O_3
 181 1 2  -0.685458  18.727859  10.350200   6.821610   # O_3
 182 1 3  -0.097453  16.456818  10.350200   6.106618   # C_3
 183 1 3  -0.044057  16.883867  10.350200   4.812636   # C_3
 184 1 4   0.071243  17.999826  10.350200   4.580585   # H_
 185 1 2  -0.213338  16.296390  10.555341   2.425259   # O_3
 186 1 3   0.185190  15.887971  10.350200   3.817568   # C_3
 187 1 3  -0.206217  14.593989  10.350200   4.243582   # C_3
 188 1 3   0.059144  14.167768  10.350200   5.537564   # C_3
 189 1 3  -0.011966  15.162836  10.350200   6.533667   # C_3
 190 1 4   0.044342  14.930785  10.350200   7.649626   # H_
 191 1 4   0.032664  13.051809  10.350200   5.769615   # H_
 192 1 2  -0.659931  12.322948  10.350200   3.528590   # O_3
 193 1 3   0.576162  13.529988  10.350200   3.179581   # C_3
 194 1 2  -0.655173  13.878997  10.350200   1.972541   # O_3
 195 1 3   0.061601  16.952800   9.401087   1.974404   # C_3
 196 1 3  -0.172599  17.666342   9.675781   0.642540   # C_3
 197 1 4   0.028119  16.203445   8.601844   1.896778   # H_
 198 1 4   0.033578  17.771914   9.126392   2.649444   # H_
 199 1 4   0.148630  16.932513   9.808057  20.578268   # H_
 200 1 3  -0.256694  18.592064   8.520906   0.292704   # C_3
 201 1 4   0.051598  18.251336  10.635659   0.756393   # H_
 202 1 4   0.088850  18.517543   7.663288   0.981406   # H_
 203 1 4   0.083230  19.633915   8.916697   0.404900   # H_
 204 1 4   0.146354  18.418802   8.174795  19.941937   # H_
 205 1 3   0.532403   7.170619   0.000000   7.170619   # C_3
 206 1 2  -0.701798   6.821610   0.000000   8.377659   # O_3
 207 1 2  -0.685622   8.377659   0.000000   6.821610   # O_3
 208 1 3  -0.118646   6.106618   0.000000   6.106618   # C_3
 209 1 3  -0.063152   6.533667   0.000000   4.812636   # C_3
 210 1 4   0.036421   7.649626   0.000000   4.580585   # H_
 211 1 2  -0.278123   5.877465   0.308436   2.469558   # O_3
 212 1 3   0.177163   5.537564   0.000000   3.817568   # C_3
 213 1 3  -0.227609   4.243582   0.000000   4.243582   # C_3
 214 1 3   0.047692   3.817568   0.000000   5.537564   # C_3
 215 1 3  -0.024768   4.812636   0.000000   6.533667   # C_3
 216 1 4   0.017798   4.580585   0.000000   7.649626   # H_
 217 1 4   0.001619   2.701609   0.000000   5.769615   # H_
 218 1 2  -0.697877   1.972748   0.000000   3.528590   # O_3
 219 1 3   0.576525   3.179581   0.000000   3.179581   # C_3
 220 1 2  -0.699156   3.528590   0.000000   1.972541   # O_3
 221 1 3   0.122143   6.439273  19.825394   1.889740   # C_3
 222 1 3  -0.040590   7.429788  20.135900   0.720374   # C_3
 223 1 4   0.036847   5.584554  19.252200   1.527276   # H_
 224 1 4   0.037213   7.021783  19.233984   2.617980   # H_
 225 1 4   0.152723   6.833202  20.438126  20.514096   # H_
 226 1 3  -0.303701   8.311211  18.886631   0.290841   # C_3
 227 1 4  -0.046547   8.121388   0.248198   1.052408   # H_
 228 1 4   0.086072   8.160926  18.056959   0.962155   # H_
 229 1 4   0.073941   9.368794  19.174367   0.334104   # H_
 230 1 4   0.157133   8.047488  18.541555  19.960154   # H_
 231 1 3   0.528548   7.170619  10.350200  17.520819   # C_3
 232 1 2  -0.614655   6.821610  10.350200  18.727859   # O_3
 233 1 2  -0.644618   8.377659  10.350200  17.171810   # O_3
 234 1 3  -0.092107   6.106618  10.350200  16.456818   # C_3
 235 1 3  -0.052516   6.533667  10.350200  15.162836   # C_3
 236 1 4   0.062676   7.649626  10.350200  14.930785   # H_
 237 1 2  -0.212880   5.891955  10.593223  12.821000   # O_3
 238 1 3   0.195318   5.537564  10.350200  14.167768   # C_3
 239 1 3  -0.217172   4.243582  10.350200  14.593782   # C_3
 240 1 3   0.063517   3.817568  10.350200  15.887764   # C_3
 241 1 3  -0.011541   4.812636  10.350200  16.883867   # C_3
 242 1 4   0.054655   4.580585  10.350200  17.999826   # H_
 243 1 4   0.026909   2.701609  10.350200  16.119815   # H_
 244 1 2  -0.754598   1.972748  10.350200  13.878790   # O_3
 245 1 3   0.569527   3.179581  10.350200  13.529781   # C_3
 246 1 2  -0.733837   3.528590  10.350200  12.322741   # O_3
 247 1 3   0.045430   6.379035   9.378937  12.260640   # C_3
 248 1 3  -0.083057   7.870292   9.206917  12.177010   # C_3
 249 1 4   0.022933   6.025472   9.424478  11.240110   # H_
 250 1 4   0.029210   5.972272   8.463566  12.693278   # H_
 251 1 4   0.040582   8.343917   9.895619  11.446700   # H_
 252 1 3  -0.133551   8.298583   7.772172  11.846218   # C_3
 253 1 4   0.049066   8.265256   9.347473  13.155725   # H_
 254 1 4   0.056483   7.664116   6.993630  12.373457   # H_
 255 1 4   0.047218   9.361963   7.577795  12.060467   # H_
 256 1 4   0.047616   8.177900   7.684402  10.740403   # H_
 257 1 3   0.531678  17.520819   3.179581   0.000000   # C_3
 258 1 2  -0.724720  18.727859   3.528590   0.000000   # O_3
 259 1 2  -0.780463  17.171810   1.972541   0.000000   # O_3
 260 1 3  -0.140855  16.456818   4.243582   0.000000   # C_3
 261 1 3  -0.011251  15.162836   3.816533   0.000000   # C_3
 262 1 4   0.008378  14.930785   2.700574   0.000000   # H_
 263 1 2  -0.024647  12.876891   4.442099  20.258860   # O_3
 264 1 3   0.055862  14.167768   4.812636   0.000000   # C_3
 265 1 3  -0.173660  14.593782   6.106618   0.000000   # C_3
 266 1 3   0.019605  15.887764   6.532632   0.000000   # C_3
 267 1 3   0.001042  16.883867   5.537564   0.000000   # C_3
 268 1 4   0.026107  17.999826   5.769615   0.000000   # H_
 269 1 4   0.010684  16.119815   7.648591   0.000000   # H_
 270 1 2  -0.698759  13.878790   8.377452   0.000000   # O_3
 271 1 3   0.553802  13.529781   7.170619   0.000000   # C_3
 272 1 2  -0.697166  12.322741   6.821610   0.000000   # O_3
 273 1 3  -0.236794  11.997331   4.055829   0.608592   # C_3
 274 1 3   0.201762  10.690515   3.586758  20.608904   # C_3
 275 1 4   0.085186  11.779770   4.920899   1.256721   # H_
 276 1 4   0.061459  12.436800   3.257415   1.250511   # H_
 277 1 4   0.013539  10.180871   4.520967  20.268383   # H_
 278 1 3  -0.327743   9.696274   2.780064   0.782682   # C_3
 279 1 4   0.007121  10.967279   2.958501  19.726653   # H_
 280 1 4   0.101214   9.262394   3.295090   1.645061   # H_
 281 1 4   0.059299  10.174661   1.835711   1.019495   # H_
 282 1 4   0.055816   8.847558   2.611355   0.137658   # H_
 283 1 3   0.521847  17.520819  13.529781  10.350200   # C_3
 284 1 2  -0.692597  18.727859  13.878790  10.350200   # O_3
 285 1 2  -0.726762  17.171810  12.322741  10.350200   # O_3
 286 1 3  -0.098187  16.456818  14.593782  10.350200   # C_3
 287 1 3  -0.044563  15.162836  14.166733  10.350200   # C_3
 288 1 4   0.056207  14.930785  13.050774  10.350200   # H_
 289 1 2  -0.198362  12.864471  14.801614   9.806814   # O_3
 290 1 3   0.176982  14.167768  15.162629  10.350200   # C_3
 291 1 3  -0.194507  14.593782  16.456611  10.350200   # C_3
 292 1 3   0.060135  15.887764  16.882832  10.350200   # C_3
 293 1 3  -0.005854  16.883867  15.887764  10.350200   # C_3
 294 1 4   0.060619  17.999826  16.119815  10.350200   # H_
 295 1 4   0.035628  16.119815  17.998791  10.350200   # H_
 296 1 2  -0.620376  13.878790  18.727652  10.350200   # O_3
 297 1 3   0.567242  13.529781  17.520612  10.350200   # C_3
 298 1 2  -0.645571  12.322741  17.171603  10.350200   # O_3
 299 1 3   0.031183  12.029416  14.299629  10.825895   # C_3
 300 1 3  -0.050368  10.682648  14.033422  10.175696   # C_3
 301 1 4   0.035299  11.910803  15.033458  11.651427   # H_
 302 1 4   0.021024  12.468472  13.346376  11.242387   # H_
 303 1 4   0.017700  10.096413  14.978188  10.082544   # H_
 304 1 3  -0.157576   9.936606  13.001300  11.023998   # C_3
 305 1 4   0.048737  10.834175  13.533301   9.182490   # H_
 306 1 4   0.066465   9.736019  13.330230  12.059432   # H_
 307 1 4   0.052724  10.428034  12.033557  11.026689   # H_
 308 1 4   0.056513   8.950853  12.892002  10.536711   # H_
 309 1 3   0.537591   7.170619   3.179581  10.350200   # C_3
 310 1 2  -0.655832   8.377659   3.528590  10.350200   # O_3
 311 1 2  -0.667342   6.821610   1.972541  10.350200   # O_3
 312 1 3  -0.108288   6.106618   4.243582  10.350200   # C_3
 313 1 3  -0.047049   4.812636   3.816533  10.350200   # C_3
 314 1 4   0.054447   4.580585   2.700574  10.350200   # H_
 315 1 2  -0.228139   2.472249   4.417051   9.947163   # O_3
 316 1 3   0.183580   3.817568   4.812636  10.350200   # C_3
 317 1 3  -0.208462   4.243582   6.106618  10.350200   # C_3
 318 1 3   0.053254   5.537564   6.532632  10.350200   # C_3
 319 1 3  -0.011629   6.533667   5.537564  10.350200   # C_3
 320 1 4   0.038538   7.649626   5.769615  10.350200   # H_
 321 1 4   0.025004   5.769615   7.648591  10.350200   # H_
 322 1 2  -0.665651   3.528590   8.377452  10.350200   # O_3
 323 1 3   0.572858   3.179581   7.170619  10.350200   # C_3
 324 1 2  -0.649163   1.972541   6.821610  10.350200   # O_3
 325 1 3   0.137446   1.656860   4.110685  11.052358   # C_3
 326 1 3  -0.407030   0.209902   3.855242  10.534227   # C_3
 327 1 4   0.009390   1.664312   4.948017  11.816823   # H_
 328 1 4  -0.004089   2.035263   3.205250  11.555998   # H_
 329 1 4   0.175932  20.224705   4.734595  10.582251   # H_
 330 1 3   0.261148  20.234641   2.743838  11.254807   # C_3
 331 1 4   0.092743   0.353149   3.566058   9.451389   # H_
 332 1 4   0.010327  19.807592   2.988724  12.237041   # H_
 333 1 4  -0.111444   0.164568   1.872558  11.365141   # H_
 334 1 4  -0.026133  19.382199   2.517376  10.647872   # H_
 335 1 3   0.541586   7.170619  13.529781   0.000000   # C_3
 336 1 2  -0.694788   8.377659  13.878790   0.000000   # O_3
 337 1 2  -0.698778   6.821610  12.322741   0.000000   # O_3
 338 1 3  -0.143393   6.106618  14.593782   0.000000   # C_3
 339 1 3  -0.015074   4.812636  14.166733   0.000000   # C_3
 340 1 4   0.018041   4.580585  13.050774   0.000000   # H_
 341 1 2  -0.072050   2.498124  14.760006  20.334417   # O_3
 342 1 3   0.067298   3.817568  15.162629   0.000000   # C_3
 343 1 3  -0.174831   4.243582  16.456611   0.000000   # C_3
 344 1 3   0.019357   5.537564  16.882832   0.000000   # C_3
 345 1 3  -0.001558   6.533667  15.887764   0.000000   # C_3
 346 1 4   0.012736   7.649626  16.119815   0.000000   # H_
 347 1 4   0.016511   5.769615  17.998791   0.000000   # H_
 348 1 2  -0.732133   3.528590  18.727652   0.000000   # O_3
 349 1 3   0.543119   3.179581  17.520612   0.000000   # C_3
 350 1 2  -0.772159   1.972541  17.171603   0.000000   # O_3
 351 1 3   0.019554   1.736971  14.264853   0.713543   # C_3
 352 1 3  -0.438309   0.302019  14.109393   0.148629   # C_3
 353 1 4   0.031384   1.752910  14.972599   1.542180   # H_
 354 1 4  -0.002834   2.163192  13.290692   1.039367   # H_
 355 1 4   0.163751  20.490498  15.104254   0.266207   # H_
 356 1 3   0.062768  20.049372  13.015791   0.645024   # C_3
 357 1 4   0.169215   0.427877  13.889761  19.782130   # H_
 358 1 4   0.056919  19.824359  13.204164   1.690809   # H_
 359 1 4   0.018576  20.474973  12.034178   0.511921   # H_
 360 1 4  -0.007518  19.105227  13.112254   0.078455   # H_
 361 1 3   0.523934  17.520819  17.520819   0.000000   # C_3
 362 1 2  -0.641473  18.727859  17.171810   0.000000   # O_3
 363 1 2  -0.643297  17.171810  18.727859   0.000000   # O_3
 364 1 3  -0.095018  16.456818  16.456818   0.000000   # C_3
 365 1 3  -0.064729  15.162836  16.883867   0.000000   # C_3
 366 1 4   0.051665  14.930785  17.999826   0.000000   # H_
 367 1 2  -0.272190  12.791398  16.259957   0.066034   # O_3
 368 1 3   0.189000  14.167768  15.887971   0.000000   # C_3
 369 1 3  -0.232232  14.593782  14.593989   0.000000   # C_3
 370 1 3   0.057467  15.887764  14.167768   0.000000   # C_3
 371 1 3  -0.022811  16.883867  15.162836   0.000000   # C_3
 372 1 4   0.044744  17.999826  14.930785   0.000000   # H_
 373 1 4   0.013190  16.119815  13.051809   0.000000   # H_
 374 1 2  -0.776831  13.878790  12.322948   0.000000   # O_3
 375 1 3   0.566950  13.529781  13.529988   0.000000   # C_3
 376 1 2  -0.764782  12.322741  13.878997   0.000000   # O_3
 377 1 3   0.102205  12.392294  16.846193  19.552149   # C_3
 378 1 3   0.061115  11.159586  17.696358  19.815251   # C_3
 379 1 4   0.040437  12.154240  15.998304  18.896153   # H_
 380 1 4   0.049667  13.175184  17.458303  19.082457   # H_
 381 1 4   0.053196  10.253736  17.115712  20.058274   # H_
 382 1 3  -0.197800  10.873920  18.673003  18.705088   # C_3
 383 1 4  -0.039169  11.400124  18.302673   0.017181   # H_
 384 1 4   0.084015  11.597813  18.604899  17.836707   # H_
 385 1 4   0.118994  10.929190  19.709265  19.073763   # H_
 386 1 4   0.078035   9.865190  18.519199  18.308469   # H_
 387 1 3   0.526360  17.520819   7.170619  10.350200   # C_3
 388 1 2  -0.604099  18.727859   6.821610  10.350200   # O_3
 389 1 2  -0.644531  17.171810   8.377659  10.350200   # O_3
 390 1 3  -0.092816  16.456818   6.106618  10.350200   # C_3
 391 1 3  -0.049224  15.162836   6.533667  10.350200   # C_3
 392 1 4   0.062159  14.930785   7.649626  10.350200   # H_
 393 1 2  -0.206941  12.820793   5.942050  10.612060   # O_3
 394 1 3   0.189407  14.167768   5.537564  10.350200   # C_3
 395 1 3  -0.214314  14.593782   4.243582  10.350200   # C_3
 396 1 3   0.062621  15.887764   3.817568  10.350200   # C_3
 397 1 3  -0.009622  16.883867   4.812636  10.350200   # C_3
 398 1 4   0.053519  17.999826   4.580585  10.350200   # H_
 399 1 4   0.028219  16.119815   2.701609  10.350200   # H_
 400 1 2  -0.753700  13.878790   1.972748  10.350200   # O_3
 401 1 3   0.568499  13.529781   3.179581  10.350200   # C_3
 402 1 2  -0.733606  12.322741   3.528590  10.350200   # O_3
 403 1 3   0.028450  12.376355   6.631787   9.440831   # C_3
 404 1 3  -0.060107  11.020272   7.360441   9.669778   # C_3
 405 1 4   0.038214  12.190673   5.853866   8.666015   # H_
 406 1 4   0.022725  13.092589   7.368307   9.058702   # H_
 407 1 4   0.034515  10.184597   6.611294   9.746576   # H_
 408 1 3  -0.143324  10.701072   8.405397   8.624408   # C_3
 409 1 4   0.040582  11.055049   7.891199  10.643732   # H_
 410 1 4   0.050890  11.538817   8.440381   7.862426   # H_
 411 1 4   0.047956  10.666088   9.395084   9.094721   # H_
 412 1 4   0.051514   9.710972   8.196737   8.178107   # H_
 413 1 3   0.520221   7.170619  17.520819  10.350200   # C_3
 414 1 2  -0.729576   8.377659  17.171810  10.350200   # O_3
 415 1 2  -0.690622   6.821610  18.727859  10.350200   # O_3
 416 1 3  -0.099558   6.106618  16.456818  10.350200   # C_3
 417 1 3  -0.046698   4.812636  16.883867  10.350200   # C_3
 418 1 4   0.066634   4.580585  17.999826  10.350200   # H_
 419 1 2  -0.206542   2.449685  16.266167  10.656359   # O_3
 420 1 3   0.183751   3.817568  15.887971  10.350200   # C_3
 421 1 3  -0.211988   4.243582  14.593989  10.350200   # C_3
 422 1 3   0.057619   5.537564  14.167768  10.350200   # C_3
 423 1 3  -0.012834   6.533667  15.162836  10.350200   # C_3
 424 1 4   0.043298   7.649626  14.930785  10.350200   # H_
 425 1 4   0.031924   5.769615  13.051809  10.350200   # H_
 426 1 2  -0.744917   3.528590  12.322948  10.350200   # O_3
 427 1 3   0.569239   3.179581  13.529988  10.350200   # C_3
 428 1 2  -0.751003   1.972541  13.878997  10.350200   # O_3
 429 1 3   0.023414   1.895329  16.636497   9.359893   # C_3
 430 1 3  -0.063181   2.462520  17.985543   8.758339   # C_3
 431 1 4   0.006502   0.816838  16.772913   9.540400   # H_
 432 1 4   0.042049   2.001936  15.819867   8.612608   # H_
 433 1 4   0.052514   2.325069  18.752492   9.544747   # H_
 434 1 3  -0.138520   1.609042  18.476556   7.639069   # C_3
 435 1 4   0.061255   3.523208  17.971052   8.370000   # H_
 436 1 4   0.074789   1.959293  17.921785   6.735910   # H_
 437 1 4   0.085083   1.673006  19.571607   7.504516   # H_
 438 1 4   0.036553   0.522685  18.236431   7.854353   # H_
 439 1 3   0.525085   7.170619   7.170619   0.000000   # C_3
 440 1 2  -0.779220   8.377659   6.821610   0.000000   # O_3
 441 1 2  -0.776714   6.821610   8.377659   0.000000   # O_3
 442 1 3  -0.120529   6.106618   6.106618   0.000000   # C_3
 443 1 3  -0.065120   4.812636   6.533667   0.000000   # C_3
 444 1 4   0.036826   4.580585   7.649626   0.000000   # H_
 445 1 2  -0.287660   2.452997   5.924868   0.211972   # O_3
 446 1 3   0.180758   3.817568   5.537564   0.000000   # C_3
 447 1 3  -0.229994   4.243582   4.243582   0.000000   # C_3
 448 1 3   0.051755   5.537564   3.817568   0.000000   # C_3
 449 1 3  -0.025332   6.533667   4.812636   0.000000   # C_3
 450 1 4   0.020888   7.649626   4.580585   0.000000   # H_
 451 1 4   0.003153   5.769615   2.701609   0.000000   # H_
 452 1 2  -0.707519   3.528590   1.972748   0.000000   # O_3
 453 1 3   0.581302   3.179581   3.179581   0.000000   # C_3
 454 1 2  -0.696113   1.972541   3.528590   0.000000   # O_3
 455 1 3   0.145312   2.019324   6.562855  19.749838   # C_3
 456 1 3  -0.058160   0.743351   7.311381  20.035089   # C_3
 457 1 4   0.028464   1.845648   5.804599  18.961359   # H_
 458 1 4   0.035989   2.763710   7.315107  19.432500   # H_
 459 1 4   0.161874  20.582201   6.639653  20.104642   # H_
 460 1 3  -0.302086   0.494326   8.273536  18.906503   # C_3
 461 1 4  -0.039992   0.856376   7.819783   0.306780   # H_
 462 1 4   0.078157   1.195448   8.194460  18.045988   # H_
 463 1 4   0.079619   0.658894   9.246248  19.341005   # H_
 464 1 4   0.159082  20.159913   8.178314  18.493944   # H_
 465 1 3   0.534938   0.000000  17.520819   3.179581   # C_3
 466 1 2  -0.637442   0.000000  18.727859   3.528590   # O_3
 467 1 2  -0.702080   0.000000  17.171810   1.972541   # O_3
 468 1 3  -0.134909   0.000000  16.456818   4.243582   # C_3
 469 1 3  -0.012469   0.000000  15.162836   3.816533   # C_3
 470 1 4   0.018544   0.000000  14.930785   2.700574   # H_
 471 1 2  -0.010291  20.180406  12.893451   4.442720   # O_3
 472 1 3   0.051841   0.000000  14.167768   4.812636   # C_3
 473 1 3  -0.178147   0.000000  14.593782   6.106618   # C_3
 474 1 3   0.020364   0.000000  15.887764   6.532632   # C_3
 475 1 3  -0.002322   0.000000  16.883867   5.537564   # C_3
 476 1 4   0.034771   0.000000  17.999826   5.769615   # H_
 477 1 4   0.015170   0.000000  16.119815   7.648591   # H_
 478 1 2  -0.788632   0.000000  13.878790   8.377452   # O_3
 479 1 3   0.546884   0.000000  13.529781   7.170619   # C_3
 480 1 2  -0.777835   0.000000  12.322741   6.821610   # O_3
 481 1 3  -0.261317   0.476109  12.019687   3.955846   # C_3
 482 1 3   0.209091  20.478906  10.749925   3.431919   # C_3
 483 1 4   0.089040   1.155496  11.742716   4.742462   # H_
 484 1 4   0.068870   1.045577  12.534713   3.142735   # H_
 485 1 4   0.017524  20.181234  10.142782   4.307339   # H_
 486 1 3  -0.324893   0.484596   9.836623   2.348046   # C_3
 487 1 4   0.011710  19.559394  11.149235   2.964918   # H_
 488 1 4   0.094086   1.550460   9.747404   2.594795   # H_