 (written by mofun)

528 atoms
0 bonds
0 angles
0 dihedrals
0 impropers

5 atom types
   0.000000  20.700400 xlo xhi
   0.000000  20.700400 ylo yhi
   0.000000  20.700400 zlo zhi

Masses

 1 91.2240   # Zr3+4
 2 15.9994   # O_3
 3 12.0107   # C_3
 4 1.0079   # H_
 5 14.0067   # N_3

Pair Coeffs

 1   0.069000   2.783168 # Zr3+4
 2   0.060000   3.118146 # O_3
 3   0.105000   3.430851 # C_3
 4   0.044000   2.571134 # H_
 5   0.069000   3.260689 # N_3

Atoms

 1 1 1   3.168910   2.481771   0.000000   0.000000   # Zr3+4
 2 1 1   3.190570   2.481771  10.350200  10.350200   # Zr3+4
 3 1 1   3.177020  12.831971   0.000000  10.350200   # Zr3+4
 4 1 1   3.181080  12.831971  10.350200   0.000000   # Zr3+4
 5 1 1   3.167090  18.218629   0.000000   0.000000   # Zr3+4
 6 1 1   3.191260  18.218629  10.350200  10.350200   # Zr3+4
 7 1 1   3.179550   7.868429   0.000000  10.350200   # Zr3+4
 8 1 1   3.178680   7.868429  10.350200   0.000000   # Zr3+4
 9 1 1   3.168860   0.000000   2.481771   0.000000   # Zr3+4
 10 1 1   3.145100   0.000000  12.831971  10.350200   # Zr3+4
 11 1 1   3.190560  10.350200   2.481771  10.350200   # Zr3+4
 12 1 1   3.181080  10.350200  12.831971   0.000000   # Zr3+4
 13 1 1   3.167310   0.000000  18.218629   0.000000   # Zr3+4
 14 1 1   3.211440   0.000000   7.868429  10.350200   # Zr3+4
 15 1 1   3.191260  10.350200  18.218629  10.350200   # Zr3+4
 16 1 1   3.178530  10.350200   7.868429   0.000000   # Zr3+4
 17 1 1   3.198740   0.000000   0.000000   2.481771   # Zr3+4
 18 1 1   3.176860   0.000000  10.350200  12.831971   # Zr3+4
 19 1 1   3.145100  10.350200   0.000000  12.831971   # Zr3+4
 20 1 1   3.191100  10.350200  10.350200   2.481771   # Zr3+4
 21 1 1   3.135240   0.000000   0.000000  18.218629   # Zr3+4
 22 1 1   3.179500   0.000000  10.350200   7.868429   # Zr3+4
 23 1 1   3.211420  10.350200   0.000000   7.868429   # Zr3+4
 24 1 1   3.191800  10.350200  10.350200  18.218629   # Zr3+4
 25 1 2  -1.312950   1.161292   9.188908   9.188908   # O_3
 26 1 2  -1.219100  11.511492  19.539108   9.188908   # O_3
 27 1 2  -1.328870  11.511492   9.188908  19.539108   # O_3
 28 1 2  -1.313150   9.188908   1.161292   9.188908   # O_3
 29 1 2  -1.328960   9.188908  11.511492  19.539108   # O_3
 30 1 2  -1.176790  19.539108  19.539108   1.161292   # O_3
 31 1 2  -1.218980  19.539108   9.188908  11.511492   # O_3
 32 1 2  -1.364150   1.161292   1.161292   1.161292   # O_3
 33 1 2  -1.415260  11.511492  11.511492   1.161292   # O_3
 34 1 2  -1.353760  19.539108   1.161292   1.161292   # O_3
 35 1 2  -1.441640  19.539108  11.511492  11.511492   # O_3
 36 1 2  -1.535660   9.188908   1.161292  11.511492   # O_3
 37 1 2  -1.422590   9.188908  11.511492   1.161292   # O_3
 38 1 2  -1.353750   1.161292  19.539108   1.161292   # O_3
 39 1 2  -1.407640   1.161292   9.188908  11.511492   # O_3
 40 1 2  -1.441810  11.511492  19.539108  11.511492   # O_3
 41 1 2  -1.422740  11.511492   9.188908   1.161292   # O_3
 42 1 2  -1.301540  19.539108  19.539108  19.539108   # O_3
 43 1 2  -1.303560  19.539108   9.188908   9.188908   # O_3
 44 1 2  -1.303470   9.188908  19.539108   9.188908   # O_3
 45 1 2  -1.336140   9.188908   9.188908  19.539108   # O_3
 46 1 2  -1.485290   1.161292   1.161292  19.539108   # O_3
 47 1 2  -1.535600   1.161292  11.511492   9.188908   # O_3
 48 1 2  -1.407260  11.511492   1.161292   9.188908   # O_3
 49 1 3   0.544933   3.179581   0.000000  17.520819   # C_3
 50 1 2  -0.718443   3.528590   0.000000  18.727859   # O_3
 51 1 2  -0.792268   1.972541   0.000000  17.171810   # O_3
 52 1 3  -0.173312   4.243582   0.000000  16.456818   # C_3
 53 1 3  -0.019876   3.816533   0.000000  15.162836   # C_3
 54 1 4   0.007640   2.700574   0.000000  14.930785   # H_
 55 1 5  -0.254470   4.360125   0.032293  12.727641   # N_3
 56 1 3   0.082734   4.812636   0.000000  14.167768   # C_3
 57 1 3  -0.177817   6.106618   0.000000  14.593782   # C_3
 58 1 3  -0.021098   6.532632   0.000000  15.887764   # C_3
 59 1 3   0.092241   5.537564   0.000000  16.883867   # C_3
 60 1 5  -0.247331   5.987798   0.034777  18.324822   # N_3
 61 1 4   0.018415   7.648591   0.000000  16.119815   # H_
 62 1 2  -0.790581   8.377452   0.000000  13.878790   # O_3
 63 1 3   0.546373   7.170619   0.000000  13.529781   # C_3
 64 1 2  -0.772652   6.821610   0.000000  12.322741   # O_3
 65 1 4   0.171175   3.719655  19.927861  12.574872   # H_
 66 1 4   0.068619   3.894159   0.956358  12.546719   # H_
 67 1 4   0.101063   6.438859   0.965467  18.507400   # H_
 68 1 4   0.201131   6.636341  19.937176  18.480282   # H_
 69 1 3   0.558448   3.179581  10.350200   7.170619   # C_3
 70 1 2  -0.649775   3.528590  10.350200   8.377659   # O_3
 71 1 2  -0.666948   1.972541  10.350200   6.821610   # O_3
 72 1 3  -0.164589   4.243582  10.350200   6.106618   # C_3
 73 1 3  -0.003246   3.816533  10.350200   4.812636   # C_3
 74 1 4   0.030739   2.700574  10.350200   4.580585   # H_
 75 1 5  -0.180628   4.359711  10.387047   2.377441   # N_3
 76 1 3   0.097905   4.812636  10.350200   3.817568   # C_3
 77 1 3  -0.162333   6.106618  10.350200   4.243582   # C_3
 78 1 3  -0.009549   6.532632  10.350200   5.537564   # C_3
 79 1 3   0.107899   5.537564  10.350200   6.533667   # C_3
 80 1 5  -0.177920   5.952400  10.357031   7.952059   # N_3
 81 1 4   0.042660   7.648591  10.350200   5.769615   # H_
 82 1 2  -0.740667   8.377452  10.350200   3.528590   # O_3
 83 1 3   0.547128   7.170619  10.350200   3.179581   # C_3
 84 1 2  -0.741582   6.821610  10.350200   1.972541   # O_3
 85 1 4   0.057752   3.719448   9.582629   2.220946   # H_
 86 1 4   0.064800   3.893952  11.311527   2.200246   # H_
 87 1 4   0.074877   6.482330   9.463395   8.051421   # H_
 88 1 4   0.074913   6.654765  11.113010   8.168378   # H_
 89 1 3   0.557867  13.529781   0.000000   7.170619   # C_3
 90 1 2  -0.696956  13.878790   0.000000   8.377659   # O_3
 91 1 2  -0.697907  12.322741   0.000000   6.821610   # O_3
 92 1 3  -0.195993  14.593782   0.000000   6.106618   # C_3
 93 1 3   0.019659  14.166733   0.000000   4.812636   # C_3
 94 1 4   0.001107  13.050774   0.000000   4.580585   # H_
 95 1 5  -0.046719  14.742204  20.617391   2.368126   # N_3
 96 1 3  -0.000627  15.162629   0.000000   3.817568   # C_3
 97 1 3  -0.129386  16.456611   0.000000   4.243582   # C_3
 98 1 3  -0.037101  16.882832   0.000000   5.537564   # C_3
 99 1 3   0.109156  15.887764   0.000000   6.533667   # C_3
 100 1 5  -0.251556  16.259750   0.009315   7.975450   # N_3
 101 1 4   0.036679  17.998791   0.000000   5.769615   # H_
 102 1 2  -0.638749  18.727652   0.000000   3.528590   # O_3
 103 1 3   0.532578  17.520612   0.000000   3.179581   # C_3
 104 1 2  -0.702452  17.171603   0.000000   1.972541   # O_3
 105 1 4  -0.000524  14.345377   0.891359   2.322792   # H_
 106 1 4   0.094036  13.967181  19.942144   2.155533   # H_
 107 1 4   0.185484  16.730891  19.802417   8.219508   # H_
 108 1 4   0.077286  16.870619   0.832570   8.237103   # H_
 109 1 3   0.540147  13.529781  10.350200  17.520819   # C_3
 110 1 2  -0.675237  13.878790  10.350200  18.727859   # O_3
 111 1 2  -0.729362  12.322741  10.350200  17.171810   # O_3
 112 1 3  -0.153678  14.593782  10.350200  16.456818   # C_3
 113 1 3  -0.007225  14.166733  10.350200  15.162836   # C_3
 114 1 4   0.042516  13.050774  10.350200  14.930785   # H_
 115 1 5  -0.183582  14.741790  10.411473  12.758278   # N_3
 116 1 3   0.109862  15.162629  10.350200  14.167768   # C_3
 117 1 3  -0.150232  16.456611  10.350200  14.593782   # C_3
 118 1 3  -0.002380  16.882832  10.350200  15.887764   # C_3
 119 1 3   0.115082  15.887764  10.350200  16.883867   # C_3
 120 1 5  -0.173647  16.338205  10.319770  18.325029   # N_3
 121 1 4   0.061863  17.998791  10.350200  16.119815   # H_
 122 1 2  -0.607366  18.727652  10.350200  13.878790   # O_3
 123 1 3   0.549315  17.520612  10.350200  13.529781   # C_3
 124 1 2  -0.644134  17.171603  10.350200  12.322741   # O_3
 125 1 4   0.077336  13.961592  11.081959  12.612547   # H_
 126 1 4   0.082829  14.449086   9.463809  12.470956   # H_
 127 1 4   0.114322  16.792992   9.390943  18.507814   # H_
 128 1 4   0.111955  16.984885  11.120048  18.479247   # H_
 129 1 3   0.526066  17.520819   0.000000  17.520819   # C_3
 130 1 2  -0.723046  17.171810   0.000000  18.727859   # O_3
 131 1 2  -0.727599  18.727859   0.000000  17.171810   # O_3
 132 1 3  -0.141934  16.456818   0.000000  16.456818   # C_3
 133 1 3  -0.002323  16.883867   0.000000  15.162836   # C_3
 134 1 4   0.029844  17.999826   0.000000  14.930785   # H_
 135 1 5  -0.044839  16.339447  20.665623  12.727641   # N_3
 136 1 3   0.019085  15.887971   0.000000  14.167768   # C_3
 137 1 3  -0.164790  14.593989   0.000000  14.593782   # C_3
 138 1 3   0.002326  14.167768   0.000000  15.887764   # C_3
 139 1 3   0.016374  15.162836   0.000000  16.883867   # C_3
 140 1 5  -0.035540  14.712395  20.665416  18.324615   # N_3
 141 1 4   0.013341  13.051809   0.000000  16.119815   # H_
 142 1 2  -0.794915  12.322948   0.000000  13.878790   # O_3
 143 1 3   0.539100  13.529988   0.000000  13.529781   # C_3
 144 1 2  -0.788567  13.878997   0.000000  12.322741   # O_3
 145 1 4   0.006075  16.985299   0.766122  12.575907   # H_
 146 1 4   0.116679  16.797340  19.738452  12.545477   # H_
 147 1 4   0.132217  14.262162  19.733898  18.504088   # H_
 148 1 4   0.020461  14.062610   0.762396  18.481731   # H_
 149 1 3   0.537498  17.520819  10.350200   7.170619   # C_3
 150 1 2  -0.721691  17.171810  10.350200   8.377659   # O_3
 151 1 2  -0.681340  18.727859  10.350200   6.821610   # O_3
 152 1 3  -0.148590  16.456818  10.350200   6.106618   # C_3
 153 1 3  -0.008519  16.883867  10.350200   4.812636   # C_3
 154 1 4   0.059289  17.999826  10.350200   4.580585   # H_
 155 1 5  -0.179360  16.282314  10.296172   2.384272   # N_3
 156 1 3   0.114579  15.887971  10.350200   3.817568   # C_3
 157 1 3  -0.164665  14.593989  10.350200   4.243582   # C_3
 158 1 3  -0.000920  14.167768  10.350200   5.537564   # C_3
 159 1 3   0.099125  15.162836  10.350200   6.533667   # C_3
 160 1 5  -0.178947  14.710739  10.311697   7.974001   # N_3
 161 1 4   0.038372  13.051809  10.350200   5.769615   # H_
 162 1 2  -0.659357  12.322948  10.350200   3.528590   # O_3
 163 1 3   0.559292  13.529988  10.350200   3.179581   # C_3
 164 1 2  -0.655992  13.878997  10.350200   1.972541   # O_3
 165 1 4   0.073458  16.884488  11.123360   2.113925   # H_
 166 1 4   0.076161  16.844122   9.440003   2.151393   # H_
 167 1 4   0.079107  14.239805   9.389494   8.153888   # H_
 168 1 4   0.075716  14.076065  11.119427   8.135257   # H_
 169 1 3   0.549433   7.170619   0.000000   7.170619   # C_3
 170 1 2  -0.693440   6.821610   0.000000   8.377659   # O_3
 171 1 2  -0.695453   8.377659   0.000000   6.821610   # O_3
 172 1 3  -0.174688   6.106618   0.000000   6.106618   # C_3
 173 1 3  -0.022461   6.533667   0.000000   4.812636   # C_3
 174 1 4   0.013495   7.649626   0.000000   4.580585   # H_
 175 1 5  -0.249305   5.919900   0.014283   2.378890   # N_3
 176 1 3   0.090481   5.537564   0.000000   3.817568   # C_3
 177 1 3  -0.179283   4.243582   0.000000   4.243582   # C_3
 178 1 3  -0.020544   3.817568   0.000000   5.537564   # C_3
 179 1 3   0.085705   4.812636   0.000000   6.533667   # C_3
 180 1 5  -0.246686   4.414360   0.072244   7.946884   # N_3
 181 1 4   0.004585   2.701609   0.000000   5.769615   # H_
 182 1 2  -0.703170   1.972748   0.000000   3.528590   # O_3
 183 1 3   0.557085   3.179581   0.000000   3.179581   # C_3
 184 1 2  -0.701054   3.528590   0.000000   1.972541   # O_3
 185 1 4   0.165105   6.512139  19.879008   2.111027   # H_
 186 1 4   0.058337   6.427267   0.900260   2.122826   # H_
 187 1 4   0.060635   3.905337   0.956358   8.171483   # H_
 188 1 4   0.168190   3.678047  20.023911   8.084127   # H_
 189 1 3   0.548525   7.170619  10.350200  17.520819   # C_3
 190 1 2  -0.599696   6.821610  10.350200  18.727859   # O_3
 191 1 2  -0.652456   8.377659  10.350200  17.171810   # O_3
 192 1 3  -0.151931   6.106618  10.350200  16.456818   # C_3
 193 1 3  -0.006959   6.533667  10.350200  15.162836   # C_3
 194 1 4   0.041219   7.649626  10.350200  14.930785   # H_
 195 1 5  -0.179975   5.991731  10.318735  12.728262   # N_3
 196 1 3   0.104217   5.537564  10.350200  14.167768   # C_3
 197 1 3  -0.165753   4.243582  10.350200  14.593782   # C_3
 198 1 3  -0.004392   3.817568  10.350200  15.887764   # C_3
 199 1 3   0.111446   4.812636  10.350200  16.883867   # C_3
 200 1 5  -0.169658   4.358883  10.321012  18.299154   # N_3
 201 1 4   0.036059   2.701609  10.350200  16.119815   # H_
 202 1 2  -0.755159   1.972748  10.350200  13.878790   # O_3
 203 1 3   0.549623   3.179581  10.350200  13.529781   # C_3
 204 1 2  -0.735419   3.528590  10.350200  12.322741   # O_3
 205 1 4   0.074903   6.619160  11.132675  12.573423   # H_
 206 1 4   0.078608   6.477776   9.404399  12.544649   # H_
 207 1 4   0.099378   4.002629  11.284202  18.534517   # H_
 208 1 4   0.091152   3.575787   9.631689  18.442814   # H_
 209 1 3   0.542253  17.520819   3.179581   0.000000   # C_3
 210 1 2  -0.711245  18.727859   3.528590   0.000000   # O_3
 211 1 2  -0.780805  17.171810   1.972541   0.000000   # O_3
 212 1 3  -0.169807  16.456818   4.243582   0.000000   # C_3
 213 1 3  -0.019417  15.162836   3.816533   0.000000   # C_3
 214 1 4   0.011918  14.930785   2.700574   0.000000   # H_
 215 1 5  -0.245561  12.747306   4.383931   0.032500   # N_3
 216 1 3   0.093467  14.167768   4.812636   0.000000   # C_3
 217 1 3  -0.176688  14.593782   6.106618   0.000000   # C_3
 218 1 3  -0.017062  15.887764   6.532632   0.000000   # C_3
 219 1 3   0.093816  16.883867   5.537564   0.000000   # C_3
 220 1 5  -0.240639  18.324201   5.989868   0.038917   # N_3
 221 1 4   0.020143  16.119815   7.648591   0.000000   # H_
 222 1 2  -0.698200  13.878790   8.377452   0.000000   # O_3
 223 1 3   0.554106  13.529781   7.170619   0.000000   # C_3
 224 1 2  -0.694316  12.322741   6.821610   0.000000   # O_3
 225 1 4   0.058130  12.602404   3.595659   0.700295   # H_
 226 1 4   0.166463  12.408441   4.064731  19.801796   # H_
 227 1 4   0.102090  18.503467   6.460802   0.961327   # H_
 228 1 4   0.196063  18.485457   6.624956  19.932208   # H_
 229 1 3   0.543624  17.520819  13.529781  10.350200   # C_3
 230 1 2  -0.682288  18.727859  13.878790  10.350200   # O_3
 231 1 2  -0.729551  17.171810  12.322741  10.350200   # O_3
 232 1 3  -0.154048  16.456818  14.593782  10.350200   # C_3
 233 1 3  -0.007237  15.162836  14.166733  10.350200   # C_3
 234 1 4   0.043649  14.930785  13.050774  10.350200   # H_
 235 1 5  -0.183479  12.769663  14.748207  10.346267   # N_3
 236 1 3   0.111291  14.167768  15.162629  10.350200   # C_3
 237 1 3  -0.149996  14.593782  16.456611  10.350200   # C_3
 238 1 3  -0.002566  15.887764  16.882832  10.350200   # C_3
 239 1 3   0.118979  16.883867  15.887764  10.350200   # C_3
 240 1 5  -0.172803  18.325029  16.328269  10.382286   # N_3
 241 1 4   0.062694  16.119815  17.998791  10.350200   # H_
 242 1 2  -0.605888  13.878790  18.727652  10.350200   # O_3
 243 1 3   0.549046  13.529781  17.520612  10.350200   # C_3
 244 1 2  -0.643583  12.322741  17.171603  10.350200   # O_3
 245 1 4   0.078604  12.617515  14.093039  11.149442   # H_
 246 1 4   0.081850  12.534092  14.323849   9.432551   # H_
 247 1 4   0.118769  18.528307  16.777674  11.310699   # H_
 248 1 4   0.115825  18.554597  17.000825   9.612645   # H_
 249 1 3   0.557915   7.170619   3.179581  10.350200   # C_3
 250 1 2  -0.649760   8.377659   3.528590  10.350200   # O_3
 251 1 2  -0.666643   6.821610   1.972541  10.350200   # O_3
 252 1 3  -0.163539   6.106618   4.243582  10.350200   # C_3
 253 1 3  -0.004903   4.812636   3.816533  10.350200   # C_3
 254 1 4   0.031273   4.580585   2.700574  10.350200   # H_
 255 1 5  -0.182599   2.401867   4.396351  10.200329   # N_3
 256 1 3   0.100310   3.817568   4.812636  10.350200   # C_3
 257 1 3  -0.159739   4.243582   6.106618  10.350200   # C_3
 258 1 3  -0.008801   5.537564   6.532632  10.350200   # C_3
 259 1 3   0.106786   6.533667   5.537564  10.350200   # C_3
 260 1 5  -0.177934   7.954750   5.944327  10.344611   # N_3
 261 1 4   0.040783   5.769615   7.648591  10.350200   # H_
 262 1 2  -0.658465   3.528590   8.377452  10.350200   # O_3
 263 1 3   0.553775   3.179581   7.170619  10.350200   # C_3
 264 1 2  -0.649392   1.972541   6.821610  10.350200   # O_3
 265 1 4   0.056128   1.956395   3.741390  10.865847   # H_
 266 1 4   0.067706   2.495433   4.059348   9.209401   # H_
 267 1 4   0.074399   8.016230   6.566581   9.509971   # H_
 268 1 4   0.075240   8.212884   6.545880  11.172213   # H_
 269 1 3   0.552847   7.170619  13.529781   0.000000   # C_3
 270 1 2  -0.688720   8.377659  13.878790   0.000000   # O_3
 271 1 2  -0.700480   6.821610  12.322741   0.000000   # O_3
 272 1 3  -0.174698   6.106618  14.593782   0.000000   # C_3
 273 1 3  -0.017341   4.812636  14.166733   0.000000   # C_3
 274 1 4   0.013047   4.580585  13.050774   0.000000   # H_
 275 1 5  -0.249710   2.378269  14.709290   0.037675   # N_3
 276 1 3   0.083182   3.817568  15.162629   0.000000   # C_3
 277 1 3  -0.165179   4.243582  16.456611   0.000000   # C_3
 278 1 3  -0.019109   5.537564  16.882832   0.000000   # C_3
 279 1 3   0.089997   6.533667  15.887764   0.000000   # C_3
 280 1 5  -0.238317   7.964479  16.295976   0.075349   # N_3
 281 1 4   0.036458   5.769615  17.998791   0.000000   # H_
 282 1 2  -0.719174   3.528590  18.727652   0.000000   # O_3
 283 1 3   0.539480   3.179581  17.520612   0.000000   # C_3
 284 1 2  -0.767849   1.972541  17.171603   0.000000   # O_3
 285 1 4   0.159237   2.221153  14.078963  19.926826   # H_
 286 1 4   0.063977   2.196105  14.227799   0.954702   # H_
 287 1 4   0.074010   8.226132  17.013866   0.791169   # H_
 288 1 4   0.174223   8.036930  16.830460  19.864518   # H_
 289 1 3   0.541027  17.520819  17.520819   0.000000   # C_3
 290 1 2  -0.627601  18.727859  17.171810   0.000000   # O_3
 291 1 2  -0.641538  17.171810  18.727859   0.000000   # O_3
 292 1 3  -0.154016  16.456818  16.456818   0.000000   # C_3
 293 1 3  -0.018231  15.162836  16.883867   0.000000   # C_3
 294 1 4   0.035699  14.930785  17.999826   0.000000   # H_
 295 1 5  -0.250529  12.727848  16.340068   0.031258   # N_3
 296 1 3   0.093443  14.167768  15.887971   0.000000   # C_3
 297 1 3  -0.175855  14.593782  14.593989   0.000000   # C_3
 298 1 3  -0.018344  15.887764  14.167768   0.000000   # C_3
 299 1 3   0.099218  16.883867  15.162836   0.000000   # C_3
 300 1 5  -0.233985  18.304536  14.757729   0.003105   # N_3
 301 1 4   0.022049  16.119815  13.051809   0.000000   # H_
 302 1 2  -0.774715  13.878790  12.322948   0.000000   # O_3
 303 1 3   0.544312  13.529781  13.529988   0.000000   # C_3
 304 1 2  -0.766391  12.322741  13.878997   0.000000   # O_3
 305 1 4   0.181130  12.577356  16.981780  19.927240   # H_
 306 1 4   0.085065  12.544235  16.804378   0.955323   # H_
 307 1 4   0.092887  18.364567  14.131956   0.834433   # H_
 308 1 4   0.195798  18.566603  14.157211  19.878180   # H_
 309 1 3   0.544320  17.520819   7.170619  10.350200   # C_3
 310 1 2  -0.587764  18.727859   6.821610  10.350200   # O_3
 311 1 2  -0.652594  17.171810   8.377659  10.350200   # O_3
 312 1 3  -0.148504  16.456818   6.106618  10.350200   # C_3
 313 1 3  -0.008310  15.162836   6.533667  10.350200   # C_3
 314 1 4   0.041054  14.930785   7.649626  10.350200   # H_
 315 1 5  -0.180178  12.728055   5.991317  10.316665   # N_3
 316 1 3   0.105463  14.167768   5.537564  10.350200   # C_3
 317 1 3  -0.166329  14.593782   4.243582  10.350200   # C_3
 318 1 3  -0.000525  15.887764   3.817568  10.350200   # C_3
 319 1 3   0.106254  16.883867   4.812636  10.350200   # C_3
 320 1 5  -0.162893  18.346351   4.446860  10.238832   # N_3
 321 1 4   0.038461  16.119815   2.701609  10.350200   # H_
 322 1 2  -0.752538  13.878790   1.972748  10.350200   # O_3
 323 1 3   0.549943  13.529781   3.179581  10.350200   # C_3
 324 1 2  -0.735112  12.322741   3.528590  10.350200   # O_3
 325 1 4   0.075419  12.573216   6.622679  11.127500   # H_
 326 1 4   0.078979  12.546305   6.470531   9.398810   # H_
 327 1 4   0.093149  18.574676   3.752983   9.410609   # H_
 328 1 4   0.107408  18.756218   4.292021  11.227276   # H_
 329 1 3   0.537524   7.170619  17.520819  10.350200   # C_3
 330 1 2  -0.721806   8.377659  17.171810  10.350200   # O_3
 331 1 2  -0.680999   6.821610  18.727859  10.350200   # O_3
 332 1 3  -0.149541   6.106618  16.456818  10.350200   # C_3
 333 1 3  -0.007454   4.812636  16.883867  10.350200   # C_3
 334 1 4   0.060259   4.580585  17.999826  10.350200   # H_
 335 1 5  -0.181818   2.376199  16.331995  10.321219   # N_3
 336 1 3   0.110451   3.817568  15.887971  10.350200   # C_3
 337 1 3  -0.168161   4.243582  14.593989  10.350200   # C_3
 338 1 3  -0.002049   5.537564  14.167768  10.350200   # C_3
 339 1 3   0.099361   6.533667  15.162836  10.350200   # C_3
 340 1 5  -0.179023   7.974001  14.710532  10.313560   # N_3
 341 1 4   0.040756   5.769615  13.051809  10.350200   # H_
 342 1 2  -0.742690   3.528590  12.322948  10.350200   # O_3
 343 1 3   0.552583   3.179581  13.529988  10.350200   # C_3
 344 1 2  -0.752641   1.972541  13.878997  10.350200   # O_3
 345 1 4   0.073109   2.169816  17.011382  11.092930   # H_
 346 1 4   0.079869   2.180787  16.769601   9.385147   # H_
 347 1 4   0.079802   8.155751  14.238563   9.391978   # H_
 348 1 4   0.075164   8.134429  14.076686  11.121704   # H_
 349 1 3   0.534174   7.170619   7.170619   0.000000   # C_3
 350 1 2  -0.784310   8.377659   6.821610   0.000000   # O_3
 351 1 2  -0.780793   6.821610   8.377659   0.000000   # O_3
 352 1 3  -0.160676   6.106618   6.106618   0.000000   # C_3
 353 1 3  -0.007014   4.812636   6.533667   0.000000   # C_3
 354 1 4   0.010227   4.580585   7.649626   0.000000   # H_
 355 1 5  -0.060258   2.414081   5.959852  20.599589   # N_3
 356 1 3   0.022215   3.817568   5.537564   0.000000   # C_3
 357 1 3  -0.164365   4.243582   4.243582   0.000000   # C_3
 358 1 3   0.001372   5.537564   3.817568   0.000000   # C_3
 359 1 3   0.012719   6.533667   4.812636   0.000000   # C_3
 360 1 5  -0.051478   7.974415   4.361781  20.661690   # N_3
 361 1 4   0.004491   5.769615   2.701609   0.000000   # H_
 362 1 2  -0.705220   3.528590   1.972748   0.000000   # O_3
 363 1 3   0.551973   3.179581   3.179581   0.000000   # C_3
 364 1 2  -0.706216   1.972541   3.528590   0.000000   # O_3
 365 1 4   0.094476   2.260070   6.814572  20.022462   # H_
 366 1 4   0.001949   2.101712   6.122764   0.872729   # H_
 367 1 4   0.098488   8.154302   3.906579  19.732242   # H_
 368 1 4  -0.006966   8.133808   3.716550   0.761154   # H_
 369 1 3   0.547240   0.000000  17.520819   3.179581   # C_3
 370 1 2  -0.638890   0.000000  18.727859   3.528590   # O_3
 371 1 2  -0.702905   0.000000  17.171810   1.972541   # O_3
 372 1 3  -0.166526   0.000000  16.456818   4.243582   # C_3
 373 1 3  -0.020291   0.000000  15.162836   3.816533   # C_3
 374 1 4   0.010346   0.000000  14.930785   2.700574   # H_
 375 1 5  -0.255157   0.030430  12.727227   4.360539   # N_3
 376 1 3   0.085607   0.000000  14.167768   4.812636   # C_3
 377 1 3  -0.180395   0.000000  14.593782   6.106618   # C_3
 378 1 3  -0.011558   0.000000  15.887764   6.532632   # C_3
 379 1 3   0.089213   0.000000  16.883867   5.537564   # C_3
 380 1 5  -0.238094   0.178023  18.370777   5.949088   # N_3
 381 1 4   0.022104   0.000000  16.119815   7.648591   # H_
 382 1 2  -0.790427   0.000000  13.878790   8.377452   # O_3
 383 1 3   0.548023   0.000000  13.529781   7.170619   # C_3
 384 1 2  -0.772919   0.000000  12.322741   6.821610   # O_3
 385 1 4   0.172425  19.927861  12.576528   3.716757   # H_
 386 1 4   0.068927   0.955944  12.546305   3.898713   # H_
 387 1 4   0.217354  19.983752  18.953700   5.953849   # H_
 388 1 4   0.093224   0.864656  18.509056   6.732391   # H_
 389 1 3   0.536521   0.000000   7.170619  13.529781   # C_3
 390 1 2  -0.702925   0.000000   8.377659  13.878790   # O_3
 391 1 2  -0.692320   0.000000   6.821610  12.322741   # O_3
 392 1 3  -0.143056   0.000000   6.106618  14.593782   # C_3
 393 1 3  -0.036410   0.000000   4.812636  14.166733   # C_3
 394 1 4   0.013457   0.000000   4.580585  13.050774   # H_
 395 1 5  -0.255258   0.026083   2.375785  14.719226   # N_3
 396 1 3   0.097075   0.000000   3.817568  15.162629   # C_3
 397 1 3  -0.186411   0.000000   4.243582  16.456611   # C_3
 398 1 3   0.016469   0.000000   5.537564  16.882832   # C_3
 399 1 3   0.004718   0.000000   6.533667  15.887764   # C_3
 400 1 5  -0.044112  20.667693   7.952473  16.281900   # N_3
 401 1 4   0.024331   0.000000   5.769615  17.998791   # H_
 402 1 2  -0.729615   0.000000   3.528590  18.727652   # O_3
 403 1 3   0.549671   0.000000   3.179581  17.520612   # C_3
 404 1 2  -0.783632   0.000000   1.972541  17.171603   # O_3
 405 1 4   0.163604  19.954772   2.166711  14.040667   # H_
 406 1 4   0.063437   0.960499   2.176026  14.279757   # H_
 407 1 4   0.114159  19.882320   8.137327  16.949281   # H_
 408 1 4   0.011227   0.904400   8.136913  16.731305   # H_
 409 1 3   0.543878  10.350200  17.520819  13.529781   # C_3
 410 1 2  -0.683236  10.350200  18.727859  13.878790   # O_3
 411 1 2  -0.730293  10.350200  17.171810  12.322741   # O_3
 412 1 3  -0.156877  10.350200  16.456818  14.593782   # C_3
 413 1 3  -0.003520  10.350200  15.162836  14.166733   # C_3
 414 1 4   0.041948  10.350200  14.930785  13.050774   # H_
 415 1 5  -0.179326  10.319770  12.727434  14.710739   # N_3
 416 1 3   0.101137  10.350200  14.167768  15.162629   # C_3
 417 1 3  -0.149283  10.350200  14.593782  16.456611   # C_3
 418 1 3  -0.006603  10.350200  15.887764  16.882832   # C_3
 419 1 3   0.118864  10.350200  16.883867  15.887764   # C_3
 420 1 5  -0.172440  10.378353  18.325650  16.329097   # N_3
 421 1 4   0.064491  10.350200  16.119815  17.998791   # H_
 422 1 2  -0.683263  10.350200  13.878790  18.727652   # O_3
 423 1 3   0.538073  10.350200  13.529781  17.520612   # C_3
 424 1 2  -0.721025  10.350200  12.322741  17.171603   # O_3
 425 1 4   0.076565  11.122118  12.576114  14.066129   # H_
 426 1 4   0.078371   9.393635  12.546305  14.250362   # H_
 427 1 4   0.116684  11.308629  18.527272  16.776018   # H_
 428 1 4   0.111278   9.607470  18.547558  17.003516   # H_
 429 1 3   0.548936  10.350200   7.170619   3.179581   # C_3
 430 1 2  -0.734004  10.350200   8.377659   3.528590   # O_3
 431 1 2  -0.751638  10.350200   6.821610   1.972541   # O_3
 432 1 3  -0.167192  10.350200   6.106618   4.243582   # C_3
 433 1 3  -0.002946  10.350200   4.812636   3.816533   # C_3
 434 1 4   0.031871  10.350200   4.580585   2.700574   # H_
 435 1 5  -0.177295  10.453288   2.361916   4.438580   # N_3
 436 1 3   0.097528  10.350200   3.817568   4.812636   # C_3
 437 1 3  -0.159601  10.350200   4.243582   6.106618   # C_3
 438 1 3  -0.007004  10.350200   5.537564   6.532632   # C_3
 439 1 3   0.102958  10.350200   6.533667   5.537564   # C_3
 440 1 5  -0.180172  10.386012   7.974415   5.988833   # N_3
 441 1 4   0.041163  10.350200   5.769615   7.648591   # H_
 442 1 2  -0.658228  10.350200   3.528590   8.377452   # O_3
 443 1 3   0.553912  10.350200   3.179581   7.170619   # C_3
 444 1 2  -0.652345  10.350200   1.972541   6.821610   # O_3
 445 1 4   0.051523  10.423065   2.327553   3.403146   # H_
 446 1 4   0.071659   9.498172   1.954118   4.673943   # H_
 447 1 4   0.079215  11.313804   8.152853   6.447761   # H_
 448 1 4   0.074289   9.584078   8.133187   6.631787   # H_
 449 1 3   0.525256   0.000000  17.520819  17.520819   # C_3
 450 1 2  -0.728419   0.000000  18.727859  17.171810   # O_3
 451 1 2  -0.719540   0.000000  17.171810  18.727859   # O_3
 452 1 3  -0.141550   0.000000  16.456818  16.456818   # C_3
 453 1 3  -0.002960   0.000000  15.162836  16.883867   # C_3
 454 1 4   0.029627   0.000000  14.930785  17.999826   # H_
 455 1 5  -0.044786  20.668728  12.727434  16.340068   # N_3
 456 1 3   0.018307   0.000000  14.167768  15.887971   # C_3
 457 1 3  -0.164913   0.000000  14.593782  14.593989   # C_3
 458 1 3   0.002411   0.000000  15.887764  14.167768   # C_3
 459 1 3   0.016865   0.000000  16.883867  15.162836   # C_3
 460 1 5  -0.033153  20.668935  18.325650  14.721089   # N_3
 461 1 4   0.013842   0.000000  16.119815  13.051809   # H_
 462 1 2  -0.794967   0.000000  13.878790  12.322948   # O_3
 463 1 3   0.539164   0.000000  13.529781  13.529988   # C_3
 464 1 2  -0.789545   0.000000  12.322741  13.878997   # O_3
 465 1 4   0.003685   0.770469  12.574665  16.984678   # H_
 466 1 4   0.114909  19.742178  12.548789  16.800652   # H_
 467 1 4   0.136237  19.735554  18.523339  14.278101   # H_
 468 1 4   0.019652   0.738176  18.543625  14.043772   # H_
 469 1 3   0.548687   0.000000   7.170619   7.170619   # C_3
 470 1 2  -0.694216   0.000000   8.377659   6.821610   # O_3
 471 1 2  -0.693559   0.000000   6.821610   8.377659   # O_3
 472 1 3  -0.173719   0.000000   6.106618   6.106618   # C_3
 473 1 3  -0.025438   0.000000   4.812636   6.533667   # C_3
 474 1 4   0.010933   0.000000   4.580585   7.649626   # H_
 475 1 5  -0.257899   0.050923   2.413460   5.995664   # N_3
 476 1 3   0.092971   0.000000   3.817568   5.537564   # C_3
 477 1 3  -0.182288   0.000000   4.243582   4.243582   # C_3
 478 1 3  -0.017811   0.000000   5.537564   3.817568   # C_3
 479 1 3   0.085423   0.000000   6.533667   4.812636   # C_3
 480 1 5  -0.247308   0.004347   7.971724   4.430921   # N_3
 481 1 4   0.007126   0.000000   5.769615   2.701609   # H_
 482 1 2  -0.712060   0.000000   3.528590   1.972748   # O_3
 483 1 3   0.557860   0.000000   3.179581   3.179581   # C_3
 484 1 2  -0.695114   0.000000   1.972541   3.528590   # O_3
 485 1 4   0.166306  20.208558   2.289050   6.893026   # H_
 486 1 4   0.065352   1.054064   2.060311   6.071634   # H_
 487 1 4   0.061628   0.887219   8.236689   3.921898   # H_