 (written by mofun)

1208 atoms
0 bonds
0 angles
0 dihedrals
0 impropers

5 atom types
   0.000000  26.896000 xlo xhi
   0.000000  26.896000 ylo yhi
   0.000000  26.896000 zlo zhi

Masses

 1 91.2240   # Zr3+4
 2 15.9994   # O_3
 3 12.0107   # C_3
 4 1.0079   # H_
 5 14.0067   # N_3

Pair Coeffs

 1   0.069000   2.783168 # Zr3+4
 2   0.060000   3.118146 # O_3
 3   0.105000   3.430851 # C_3
 4   0.044000   2.571134 # H_
 5   0.069000   3.260689 # N_3

Atoms

 1 1 1   3.190410   2.475508   0.000000   0.000000   # Zr3+4
 2 1 1   3.189730  24.420492   0.000000   0.000000   # Zr3+4
 3 1 1   3.189290   0.000000   2.475508   0.000000   # Zr3+4
 4 1 1   3.188710   0.000000  24.420492   0.000000   # Zr3+4
 5 1 1   3.189520   0.000000   0.000000   2.475508   # Zr3+4
 6 1 1   3.188910   0.000000   0.000000  24.420492   # Zr3+4
 7 1 1   3.214790   2.475508  13.448000  13.448000   # Zr3+4
 8 1 1   3.213640  24.420492  13.448000  13.448000   # Zr3+4
 9 1 1   3.201360   0.000000  15.923508  13.448000   # Zr3+4
 10 1 1   3.201330   0.000000  10.972492  13.448000   # Zr3+4
 11 1 1   3.201390   0.000000  13.448000  15.923508   # Zr3+4
 12 1 1   3.201350   0.000000  13.448000  10.972492   # Zr3+4
 13 1 1   3.202530  15.923508   0.000000  13.448000   # Zr3+4
 14 1 1   3.202500  10.972492   0.000000  13.448000   # Zr3+4
 15 1 1   3.214770  13.448000   2.475508  13.448000   # Zr3+4
 16 1 1   3.213720  13.448000  24.420492  13.448000   # Zr3+4
 17 1 1   3.202510  13.448000   0.000000  15.923508   # Zr3+4
 18 1 1   3.202470  13.448000   0.000000  10.972492   # Zr3+4
 19 1 1   3.202280  15.923508  13.448000   0.000000   # Zr3+4
 20 1 1   3.202250  10.972492  13.448000   0.000000   # Zr3+4
 21 1 1   3.202290  13.448000  15.923508   0.000000   # Zr3+4
 22 1 1   3.202260  13.448000  10.972492   0.000000   # Zr3+4
 23 1 1   3.214780  13.448000  13.448000   2.475508   # Zr3+4
 24 1 1   3.213710  13.448000  13.448000  24.420492   # Zr3+4
 25 1 2  -1.323620   1.221078   1.221078   1.221078   # O_3
 26 1 2  -1.146590  25.674922  25.674922   1.221078   # O_3
 27 1 2  -1.144840  25.674922   1.221078  25.674922   # O_3
 28 1 2  -1.152540   1.221078  25.674922  25.674922   # O_3
 29 1 2  -1.234990   1.221078   1.221078  25.674922   # O_3
 30 1 2  -1.064140  25.674922  25.674922  25.674922   # O_3
 31 1 2  -1.236490   1.221078  25.674922   1.221078   # O_3
 32 1 2  -1.228480  25.674922   1.221078   1.221078   # O_3
 33 1 2  -1.273710   1.221078  14.669078  14.669078   # O_3
 34 1 2  -1.180030  25.674922  12.226922  14.669078   # O_3
 35 1 2  -1.180010  25.674922  14.669078  12.226922   # O_3
 36 1 2  -1.273670   1.221078  12.226922  12.226922   # O_3
 37 1 2  -1.273380   1.221078  14.669078  12.226922   # O_3
 38 1 2  -1.179050  25.674922  12.226922  12.226922   # O_3
 39 1 2  -1.273340   1.221078  12.226922  14.669078   # O_3
 40 1 2  -1.179570  25.674922  14.669078  14.669078   # O_3
 41 1 2  -1.271060  14.669078   1.221078  14.669078   # O_3
 42 1 2  -1.185170  12.226922  25.674922  14.669078   # O_3
 43 1 2  -1.271070  12.226922   1.221078  12.226922   # O_3
 44 1 2  -1.185180  14.669078  25.674922  12.226922   # O_3
 45 1 2  -1.271170  14.669078   1.221078  12.226922   # O_3
 46 1 2  -1.185160  12.226922  25.674922  12.226922   # O_3
 47 1 2  -1.185720  14.669078  25.674922  14.669078   # O_3
 48 1 2  -1.271190  12.226922   1.221078  14.669078   # O_3
 49 1 2  -1.271530  14.669078  14.669078   1.221078   # O_3
 50 1 2  -1.271500  12.226922  12.226922   1.221078   # O_3
 51 1 2  -1.183930  12.226922  14.669078  25.674922   # O_3
 52 1 2  -1.183990  14.669078  12.226922  25.674922   # O_3
 53 1 2  -1.184550  14.669078  14.669078  25.674922   # O_3
 54 1 2  -1.184050  12.226922  12.226922  25.674922   # O_3
 55 1 2  -1.271710  14.669078  12.226922   1.221078   # O_3
 56 1 2  -1.271770  12.226922  14.669078   1.221078   # O_3
 57 1 2  -0.676845   3.566410   0.000000   1.933822   # O_3
 58 1 3   0.484186   3.152211   0.000000   3.152211   # C_3
 59 1 2  -0.677213   1.933822   0.000000   3.566410   # O_3
 60 1 3  -0.157716   4.209224   0.000000   4.209224   # C_3
 61 1 3   0.059528   5.535197   0.000000   3.891851   # C_3
 62 1 3  -0.002059   3.891851   0.000000   5.535197   # C_3
 63 1 3  -0.127722   6.508832   0.000000   4.827832   # C_3
 64 1 4  -0.002274   5.779950   0.000000   2.996214   # H_
 65 1 3  -0.001834   4.827832   0.000000   6.508832   # C_3
 66 1 4   0.022279   2.996214   0.000000   5.779950   # H_
 67 1 3   0.008119   6.204907   0.000000   6.204907   # C_3
 68 1 3   0.012779   7.243093   0.000000   7.243093   # C_3
 69 1 4   0.063014   7.399090   0.000000   4.558872   # H_
 70 1 3  -0.010338   8.620168   0.000000   6.939168   # C_3
 71 1 5  -0.207898   4.251989   0.209251   7.919796   # N_3
 72 1 3  -0.131912   6.939168   0.000000   8.620168   # C_3
 73 1 3   0.001288   9.556149   0.000000   7.912803   # C_3
 74 1 5  -0.208153   9.175032   0.432219   5.548376   # N_3
 75 1 3   0.058203   7.912803   0.000000   9.556149   # C_3
 76 1 4   0.064081   6.048910   0.000000   8.889128   # H_
 77 1 3  -0.157426   9.238776   0.000000   9.238776   # C_3
 78 1 3   0.478205  10.295789   0.000000  10.295789   # C_3
 79 1 4   0.018234  10.451786   0.000000   7.668050   # H_
 80 1 4   0.001504   7.668050   0.000000  10.451786   # H_
 81 1 2  -0.669651  11.514178   0.000000   9.881590   # O_3
 82 1 2  -0.669471   9.881590   0.000000  11.514178   # O_3
 83 1 3   0.219869  10.278037  26.451409   5.045421   # C_3
 84 1 3  -0.032913   3.537631   1.497300   8.086013   # C_3
 85 1 3  -0.351746  11.058021   0.074233   3.794488   # C_3
 86 1 3  -0.056457   2.313325   1.364703   8.998326   # C_3
 87 1 4   0.174393   3.670766  26.277123   8.194135   # H_
 88 1 4   0.080760   9.491867   1.425757   5.573389   # H_
 89 1 3  -0.143443   2.740971   1.144694  10.463620   # C_3
 90 1 4   0.038117   4.243651   2.251464   8.496446   # H_
 91 1 4   0.010840   9.834522  25.487725   4.728317   # H_
 92 1 4  -0.006287   2.428709   0.137976  10.804661   # H_
 93 1 4   0.023101   2.261416   1.883527  11.123110   # H_
 94 1 4   0.037853   3.840480   1.255774  10.594603   # H_
 95 1 3  -0.041566  11.799813   1.400206   3.952905   # C_3
 96 1 4   0.026362  11.088683   2.208700   4.215679   # H_
 97 1 4   0.001215  12.288782   1.672393   3.007780   # H_
 98 1 4   0.004267  12.560970   1.293967   4.760592   # H_
 99 1 4   0.028309  11.048877  26.241620   5.801467   # H_
 100 1 4   0.034076   3.147370   1.885948   7.122599   # H_
 101 1 4   0.054649  10.332905   0.165948   2.962056   # H_
 102 1 4   0.156980  11.827247  26.213917   3.497556   # H_
 103 1 4  -0.021459   1.675621   0.518017   8.653250   # H_
 104 1 4   0.007111   1.725916   2.306063   8.924900   # H_
 105 1 2  -0.671954  23.329590   0.000000   1.933822   # O_3
 106 1 3   0.479863  23.743789   0.000000   3.152211   # C_3
 107 1 2  -0.609006  24.962178   0.000000   3.566410   # O_3
 108 1 3  -0.156402  22.686776   0.000000   4.209224   # C_3
 109 1 3   0.065010  21.360803   0.000000   3.891851   # C_3
 110 1 3   0.028751  23.004149   0.000000   5.535197   # C_3
 111 1 3  -0.132350  20.387168   0.000000   4.827832   # C_3
 112 1 4  -0.005115  21.116050   0.000000   2.996214   # H_
 113 1 3  -0.065679  22.068168   0.000000   6.508832   # C_3
 114 1 4   0.029532  23.899786   0.000000   5.779950   # H_
 115 1 3   0.020524  20.691093   0.000000   6.204907   # C_3
 116 1 3   0.018989  19.652907   0.000000   7.243093   # C_3
 117 1 4   0.051833  19.496910   0.000000   4.558872   # H_
 118 1 3  -0.065329  18.275832   0.000000   6.939168   # C_3
 119 1 5  -0.017983  22.644011  26.686749   7.919796   # N_3
 120 1 3  -0.133228  19.956832   0.000000   8.620168   # C_3
 121 1 3   0.034447  17.339851   0.000000   7.912803   # C_3
 122 1 5  -0.016131  17.720968  26.463781   5.548376   # N_3
 123 1 3   0.067041  18.983197   0.000000   9.556149   # C_3
 124 1 4   0.051311  20.847090   0.000000   8.889128   # H_
 125 1 3  -0.170990  17.657224   0.000000   9.238776   # C_3
 126 1 3   0.483531  16.600211   0.000000  10.295789   # C_3
 127 1 4   0.013120  16.444214   0.000000   7.668050   # H_
 128 1 4  -0.000604  19.227950   0.000000  10.451786   # H_
 129 1 2  -0.670385  15.381822   0.000000   9.881590   # O_3
 130 1 2  -0.669840  17.014410   0.000000  11.514178   # O_3
 131 1 3  -0.286402  16.617963   0.444591   5.045421   # C_3
 132 1 3  -0.023919  23.358369  25.398700   8.086013   # C_3
 133 1 3   0.263521  15.837979  26.821767   3.794488   # C_3
 134 1 3  -0.037268  24.582675  25.531297   8.998326   # C_3
 135 1 4  -0.003314  23.225234   0.618877   8.194135   # H_
 136 1 4   0.094847  17.404133  25.470243   5.573389   # H_
 137 1 3  -0.151074  24.155029  25.751306  10.463620   # C_3
 138 1 4   0.060024  22.652349  24.644536   8.496446   # H_
 139 1 4   0.073124  17.061478   1.408275   4.728317   # H_
 140 1 4   0.110385  24.467291  26.758024  10.804661   # H_
 141 1 4   0.077736  24.634584  25.012204  11.123110   # H_
 142 1 4   0.085907  23.055520  25.640226  10.594603   # H_
 143 1 3  -0.256641  15.096187  25.495794   3.952905   # C_3
 144 1 4   0.088073  15.807317  24.687300   4.215679   # H_
 145 1 4   0.079844  14.607218  25.223607   3.007780   # H_
 146 1 4   0.107430  14.335030  25.602033   4.760592   # H_
 147 1 4   0.067697  15.847123   0.654380   5.801467   # H_
 148 1 4   0.085362  23.748630  25.010052   7.122599   # H_
 149 1 4  -0.003299  16.563095  26.730052   2.962056   # H_
 150 1 4  -0.117930  15.068753   0.682083   3.497556   # H_
 151 1 4   0.104523  25.220379  26.377983   8.653250   # H_
 152 1 4   0.071308  25.170084  24.589668   8.924900   # H_
 153 1 2  -0.603534  23.329590   0.000000  24.962178   # O_3
 154 1 3   0.457814  23.743789   0.000000  23.743789   # C_3
 155 1 2  -0.599705  24.962178   0.000000  23.329590   # O_3
 156 1 3  -0.099337  22.686776   0.000000  22.686776   # C_3
 157 1 3   0.022389  21.360803   0.000000  23.004149   # C_3
 158 1 3  -0.035399  23.004149   0.000000  21.360803   # C_3
 159 1 3  -0.088857  20.387168   0.000000  22.068168   # C_3
 160 1 4   0.038902  21.116050   0.000000  23.899786   # H_
 161 1 3   0.025961  22.068168   0.000000  20.387168   # C_3
 162 1 4   0.060464  23.899786   0.000000  21.116050   # H_
 163 1 3  -0.009234  20.691093   0.000000  20.691093   # C_3
 164 1 3   0.023368  19.652907   0.000000  19.652907   # C_3
 165 1 4   0.057977  19.496910   0.000000  22.337128   # H_
 166 1 3  -0.012680  18.275832   0.000000  19.956832   # C_3
 167 1 5  -0.209896  22.644011   0.209251  18.976204   # N_3
 168 1 3  -0.137827  19.956832   0.000000  18.275832   # C_3
 169 1 3   0.004424  17.339851   0.000000  18.983197   # C_3
 170 1 5  -0.204817  17.720968   0.432219  21.347624   # N_3
 171 1 3   0.063045  18.983197   0.000000  17.339851   # C_3
 172 1 4   0.067607  20.847090   0.000000  18.006872   # H_
 173 1 3  -0.159875  17.657224   0.000000  17.657224   # C_3
 174 1 3   0.479111  16.600211   0.000000  16.600211   # C_3
 175 1 4   0.017739  16.444214   0.000000  19.227950   # H_
 176 1 4   0.000882  19.227950   0.000000  16.444214   # H_
 177 1 2  -0.669627  15.381822   0.000000  17.014410   # O_3
 178 1 2  -0.669309  17.014410   0.000000  15.381822   # O_3
 179 1 3   0.215055  16.617963  26.451409  21.850579   # C_3
 180 1 3  -0.027371  23.358369   1.497300  18.809987   # C_3
 181 1 3  -0.346608  15.837979   0.074233  23.101512   # C_3
 182 1 3  -0.063240  24.582675   1.364703  17.897674   # C_3
 183 1 4   0.183653  23.225234  26.277123  18.701865   # H_
 184 1 4   0.082624  17.404133   1.425757  21.322611   # H_
 185 1 3  -0.136221  24.155029   1.144694  16.432380   # C_3
 186 1 4   0.042998  22.652349   2.251464  18.399823   # H_
 187 1 4   0.017159  17.061478  25.487725  22.167683   # H_
 188 1 4   0.023647  24.467291   0.137976  16.091339   # H_
 189 1 4   0.052525  24.634584   1.883527  15.772890   # H_
 190 1 4   0.040624  23.055520   1.255774  16.301397   # H_
 191 1 3  -0.046644  15.096187   1.400206  22.943095   # C_3
 192 1 4   0.030882  15.807317   2.208700  22.680321   # H_
 193 1 4   0.021987  14.607218   1.672393  23.888220   # H_
 194 1 4   0.008631  14.335030   1.293967  22.135408   # H_
 195 1 4   0.028852  15.847123  26.241620  21.094533   # H_
 196 1 4   0.054307  23.748630   1.885948  19.773401   # H_
 197 1 4   0.072992  16.563095   0.165948  23.933944   # H_
 198 1 4   0.168803  15.068753  26.213917  23.398444   # H_
 199 1 4   0.033335  25.220379   0.518017  18.243019   # H_
 200 1 4   0.065633  25.170084   2.306063  17.971100   # H_
 201 1 2  -0.612821   3.566410   0.000000  24.962178   # O_3
 202 1 3   0.481179   3.152211   0.000000  23.743789   # C_3
 203 1 2  -0.673616   1.933822   0.000000  23.329590   # O_3
 204 1 3  -0.159745   4.209224   0.000000  22.686776   # C_3
 205 1 3   0.064440   5.535197   0.000000  23.004149   # C_3
 206 1 3   0.035799   3.891851   0.000000  21.360803   # C_3
 207 1 3  -0.128079   6.508832   0.000000  22.068168   # C_3
 208 1 4   0.020703   5.779950   0.000000  23.899786   # H_
 209 1 3  -0.074697   4.827832   0.000000  20.387168   # C_3
 210 1 4   0.002428   2.996214   0.000000  21.116050   # H_
 211 1 3   0.022780   6.204907   0.000000  20.691093   # C_3
 212 1 3   0.017755   7.243093   0.000000  19.652907   # C_3
 213 1 4   0.057557   7.399090   0.000000  22.337128   # H_
 214 1 3  -0.063632   8.620168   0.000000  19.956832   # C_3
 215 1 5  -0.015188   4.251989  26.686749  18.976204   # N_3
 216 1 3  -0.132435   6.939168   0.000000  18.275832   # C_3
 217 1 3   0.033414   9.556149   0.000000  18.983197   # C_3
 218 1 5  -0.016515   9.175032  26.463781  21.347624   # N_3
 219 1 3   0.066147   7.912803   0.000000  17.339851   # C_3
 220 1 4   0.049812   6.048910   0.000000  18.006872   # H_
 221 1 3  -0.170333   9.238776   0.000000  17.657224   # C_3
 222 1 3   0.483324  10.295789   0.000000  16.600211   # C_3
 223 1 4   0.013717  10.451786   0.000000  19.227950   # H_
 224 1 4  -0.001272   7.668050   0.000000  16.444214   # H_
 225 1 2  -0.670168  11.514178   0.000000  17.014410   # O_3
 226 1 2  -0.670113   9.881590   0.000000  15.381822   # O_3
 227 1 3  -0.281374  10.278037   0.444591  21.850579   # C_3
 228 1 3  -0.030101   3.537631  25.398700  18.809987   # C_3
 229 1 3   0.256756  11.058021  26.821767  23.101512   # C_3
 230 1 3  -0.029979   2.313325  25.531297  17.897674   # C_3
 231 1 4  -0.016235   3.670766   0.618877  18.701865   # H_
 232 1 4   0.096350   9.491867  25.470243  21.322611   # H_
 233 1 3  -0.158706   2.740971  25.751306  16.432380   # C_3
 234 1 4   0.056804   4.243651  24.644536  18.399823   # H_
 235 1 4   0.077685   9.834522   1.408275  22.167683   # H_
 236 1 4   0.082029   2.428709  26.758024  16.091339   # H_
 237 1 4   0.049129   2.261416  25.012204  15.772890   # H_
 238 1 4   0.083861   3.840480  25.640226  16.301397   # H_
 239 1 3  -0.257298  11.799813  25.495794  22.943095   # C_3
 240 1 4   0.091316  11.088683  24.687300  22.680321   # H_
 241 1 4   0.098809  12.288782  25.223607  23.888220   # H_
 242 1 4   0.109881  12.560970  25.602033  22.135408   # H_
 243 1 4   0.067233  11.048877   0.654380  21.094533   # H_
 244 1 4   0.067997   3.147370  25.010052  19.773401   # H_
 245 1 4   0.016348  10.332905  26.730052  23.933944   # H_
 246 1 4  -0.100296  11.827247   0.682083  23.398444   # H_
 247 1 4   0.050623   1.675621  26.377983  18.243019   # H_
 248 1 4   0.013666   1.725916  24.589668  17.971100   # H_
 249 1 2  -0.681260   1.933822   3.566410   0.000000   # O_3
 250 1 3   0.496008   3.152211   3.152211   0.000000   # C_3
 251 1 2  -0.680193   3.566410   1.933822   0.000000   # O_3
 252 1 3  -0.193006   4.209224   4.209224   0.000000   # C_3
 253 1 3   0.093674   3.891851   5.535197   0.000000   # C_3
 254 1 3   0.054874   5.535197   3.891851   0.000000   # C_3
 255 1 3  -0.166123   4.827832   6.508832   0.000000   # C_3
 256 1 4  -0.017531   2.996214   5.779950   0.000000   # H_
 257 1 3  -0.091251   6.508832   4.827832   0.000000   # C_3
 258 1 4  -0.001582   5.779950   2.996214   0.000000   # H_
 259 1 3   0.049997   6.204907   6.204907   0.000000   # C_3
 260 1 3  -0.021708   7.243093   7.243093   0.000000   # C_3
 261 1 4   0.068274   4.558872   7.399090   0.000000   # H_
 262 1 3   0.009901   6.939168   8.620168   0.000000   # C_3
 263 1 5  -0.018917   7.914148   4.236658  26.788954   # N_3
 264 1 3  -0.104626   8.620168   6.939168   0.000000   # C_3
 265 1 3  -0.018101   7.912803   9.556149   0.000000   # C_3
 266 1 5  -0.203029   5.520135   9.198432   0.118073   # N_3
 267 1 3   0.035295   9.556149   7.912803   0.000000   # C_3
 268 1 4   0.043285   8.889128   6.048910   0.000000   # H_
 269 1 3  -0.142289   9.238776   9.238776   0.000000   # C_3
 270 1 3   0.472431  10.295789  10.295789   0.000000   # C_3
 271 1 4   0.028969   7.668050  10.451786   0.000000   # H_
 272 1 4   0.008918  10.451786   7.668050   0.000000   # H_
 273 1 2  -0.668772   9.881590  11.514178   0.000000   # O_3
 274 1 2  -0.668906  11.514178   9.881590   0.000000   # O_3
 275 1 3   0.090890   5.020945   9.737428  25.730058   # C_3
 276 1 3  -0.152174   8.234479   3.531445   1.145232   # C_3
 277 1 3  -0.124396   3.588464  10.297940  25.826346   # C_3
 278 1 3   0.033040   9.282348   2.435433   0.984394   # C_3
 279 1 4   0.102364   7.953416   3.569637  25.979653   # H_
 280 1 4   0.062833   5.502922   9.927583   0.865513   # H_
 281 1 3  -0.345563  10.613968   2.940540   0.426571   # C_3
 282 1 4   0.060464   8.576328   4.283188   1.886485   # H_
 283 1 4   0.041245   4.998084   8.915486  24.987191   # H_
 284 1 4   0.164965  10.607513   2.868996  26.220104   # H_
 285 1 4   0.051337  11.424076   2.292077   0.816294   # H_
 286 1 4   0.073106  10.831826   3.986525   0.735606   # H_
 287 1 3   0.050495   3.540052  11.665333  26.491484   # C_3
 288 1 4  -0.065731   3.914444  11.588948   0.632325   # H_
 289 1 4   0.026373   2.481425  12.013098  26.506277   # H_
 290 1 4   0.034672   4.160273  12.402284  25.944420   # H_
 291 1 4   0.041927   5.700338  10.522253  25.338722   # H_
 292 1 4   0.053458   7.354980   3.008856   1.576912   # H_
 293 1 4   0.087759   2.990835   9.590307  26.457326   # H_
 294 1 4   0.043789   3.127467  10.360877  24.826891   # H_
 295 1 4  -0.050033   8.892624   1.607036   0.351800   # H_
 296 1 4   0.001448   9.479495   2.041675   1.998373   # H_
 297 1 2  -0.671224   1.933822  23.329590   0.000000   # O_3
 298 1 3   0.468728   3.152211  23.743789   0.000000   # C_3
 299 1 2  -0.611899   3.566410  24.962178   0.000000   # O_3
 300 1 3  -0.125535   4.209224  22.686776   0.000000   # C_3
 301 1 3   0.030841   3.891851  21.360803   0.000000   # C_3
 302 1 3  -0.026741   5.535197  23.004149   0.000000   # C_3
 303 1 3  -0.100014   4.827832  20.387168   0.000000   # C_3
 304 1 4   0.006816   2.996214  21.116050   0.000000   # H_
 305 1 3   0.018664   6.508832  22.068168   0.000000   # C_3
 306 1 4   0.048305   5.779950  23.899786   0.000000   # H_
 307 1 3  -0.022281   6.204907  20.691093   0.000000   # C_3
 308 1 3   0.050562   7.243093  19.652907   0.000000   # C_3
 309 1 4   0.043985   4.558872  19.496910   0.000000   # H_
 310 1 3  -0.087267   6.939168  18.275832   0.000000   # C_3
 311 1 5  -0.202620   7.914148  22.659342   0.107046   # N_3
 312 1 3  -0.161795   8.620168  19.956832   0.000000   # C_3
 313 1 3   0.049764   7.912803  17.339851   0.000000   # C_3
 314 1 5  -0.021956   5.520135  17.697568  26.777927   # N_3
 315 1 3   0.088694   9.556149  18.983197   0.000000   # C_3
 316 1 4   0.072993   8.889128  20.847090   0.000000   # H_
 317 1 3  -0.185480   9.238776  17.657224   0.000000   # C_3
 318 1 3   0.488359  10.295789  16.600211   0.000000   # C_3
 319 1 4   0.003148   7.668050  16.444214   0.000000   # H_
 320 1 4  -0.008076  10.451786  19.227950   0.000000   # H_
 321 1 2  -0.672050   9.881590  15.381822   0.000000   # O_3
 322 1 2  -0.671728  11.514178  17.014410   0.000000   # O_3
 323 1 3  -0.152131   5.020945  17.158303   1.165942   # C_3
 324 1 3   0.092560   8.234479  23.364555  25.750768   # C_3
 325 1 3   0.032165   3.588464  16.598060   1.069654   # C_3
 326 1 3  -0.124101   9.282348  24.460567  25.911606   # C_3
 327 1 4   0.071543   7.953416  23.326363   0.916347   # H_
 328 1 4   0.103442   5.502922  16.968417  26.030487   # H_
 329 1 3   0.050449  10.613968  23.955460  26.469429   # C_3
 330 1 4   0.041968   8.576328  22.612812  25.009515   # H_
 331 1 4   0.060417   4.998084  17.980514   1.908809   # H_
 332 1 4  -0.052779  10.607513  24.027004   0.675896   # H_
 333 1 4   0.045165  11.424076  24.603923  26.079706   # H_
 334 1 4   0.050822  10.831826  22.909475  26.160394   # H_
 335 1 3  -0.340983   3.540052  15.230667   0.404516   # C_3
 336 1 4   0.170123   3.914444  15.307052  26.263675   # H_
 337 1 4   0.035786   2.481425  14.882902   0.389723   # H_
 338 1 4   0.070214   4.160273  14.493716   0.951580   # H_
 339 1 4   0.052922   5.700338  16.373747   1.557278   # H_
 340 1 4   0.060970   7.354980  23.887144  25.319088   # H_
 341 1 4  -0.028416   2.990835  17.305693   0.438943   # H_
 342 1 4  -0.001578   3.127467  16.535123   2.069109   # H_
 343 1 4   0.127512   8.892624  25.288964  26.544200   # H_
 344 1 4   0.068754   9.479495  24.854325  24.897627   # H_
 345 1 2  -0.603365  24.962178  23.329590   0.000000   # O_3
 346 1 3   0.469286  23.743789  23.743789   0.000000   # C_3
 347 1 2  -0.607807  23.329590  24.962178   0.000000   # O_3
 348 1 3  -0.133165  22.686776  22.686776   0.000000   # C_3
 349 1 3   0.054511  23.004149  21.360803   0.000000   # C_3
 350 1 3   0.020067  21.360803  23.004149   0.000000   # C_3
 351 1 3  -0.124483  22.068168  20.387168   0.000000   # C_3
 352 1 4   0.027855  23.899786  21.116050   0.000000   # H_
 353 1 3  -0.061140  20.387168  22.068168   0.000000   # C_3
 354 1 4   0.035564  21.116050  23.899786   0.000000   # H_
 355 1 3   0.030908  20.691093  20.691093   0.000000   # C_3
 356 1 3  -0.009830  19.652907  19.652907   0.000000   # C_3
 357 1 4   0.063505  22.337128  19.496910   0.000000   # H_
 358 1 3   0.006496  19.956832  18.275832   0.000000   # C_3
 359 1 5  -0.026926  18.981852  22.659342  26.788954   # N_3
 360 1 3  -0.111785  18.275832  19.956832   0.000000   # C_3
 361 1 3  -0.014080  18.983197  17.339851   0.000000   # C_3
 362 1 5  -0.199828  21.375865  17.697568   0.118073   # N_3
 363 1 3   0.041084  17.339851  18.983197   0.000000   # C_3
 364 1 4   0.047271  18.006872  20.847090   0.000000   # H_
 365 1 3  -0.145483  17.657224  17.657224   0.000000   # C_3
 366 1 3   0.473618  16.600211  16.600211   0.000000   # C_3
 367 1 4   0.028017  19.227950  16.444214   0.000000   # H_
 368 1 4   0.007525  16.444214  19.227950   0.000000   # H_
 369 1 2  -0.668831  17.014410  15.381822   0.000000   # O_3
 370 1 2  -0.668935  15.381822  17.014410   0.000000   # O_3
 371 1 3   0.090070  21.875055  17.158303  25.730058   # C_3
 372 1 3  -0.145286  18.661521  23.364555   1.145232   # C_3
 373 1 3  -0.124696  23.307536  16.598060  25.826346   # C_3
 374 1 3   0.028051  17.613652  24.460567   0.984394   # C_3
 375 1 4   0.118027  18.942584  23.326363  25.979653   # H_
 376 1 4   0.064264  21.393078  16.968417   0.865513   # H_
 377 1 3  -0.339716  16.282032  23.955460   0.426571   # C_3
 378 1 4   0.062947  18.319672  22.612812   1.886485   # H_
 379 1 4   0.052544  21.897916  17.980514  24.987191   # H_
 380 1 4   0.182027  16.288487  24.027004  26.220104   # H_
 381 1 4   0.075910  15.471924  24.603923   0.816294   # H_
 382 1 4   0.073829  16.064174  22.909475   0.735606   # H_
 383 1 3   0.044182  23.355680  15.230667  26.491484   # C_3
 384 1 4  -0.057943  22.981287  15.307052   0.632325   # H_
 385 1 4   0.059053  24.414575  14.882902  26.506277   # H_
 386 1 4   0.037986  22.735727  14.493716  25.944420   # H_
 387 1 4   0.043676  21.195662  16.373747  25.338722   # H_
 388 1 4   0.073067  19.541020  23.887144   1.576912   # H_
 389 1 4   0.115783  23.905165  17.305693  26.457326   # H_
 390 1 4   0.075595  23.768533  16.535123  24.826891   # H_
 391 1 4   0.003670  18.003376  25.288964   0.351800   # H_
 392 1 4   0.026784  17.416505  24.854325   1.998373   # H_
 393 1 2  -0.606354  24.962178   3.566410   0.000000   # O_3
 394 1 3   0.467646  23.743789   3.152211   0.000000   # C_3
 395 1 2  -0.670132  23.329590   1.933822   0.000000   # O_3
 396 1 3  -0.123294  22.686776   4.209224   0.000000   # C_3
 397 1 3   0.026199  23.004149   5.535197   0.000000   # C_3
 398 1 3  -0.023460  21.360803   3.891851   0.000000   # C_3
 399 1 3  -0.090701  22.068168   6.508832   0.000000   # C_3
 400 1 4   0.037878  23.899786   5.779950   0.000000   # H_
 401 1 3   0.013229  20.387168   4.827832   0.000000   # C_3
 402 1 4   0.024461  21.116050   2.996214   0.000000   # H_
 403 1 3  -0.022490  20.691093   6.204907   0.000000   # C_3
 404 1 3   0.050804  19.652907   7.243093   0.000000   # C_3
 405 1 4   0.049273  22.337128   7.399090   0.000000   # H_
 406 1 3  -0.086122  19.956832   8.620168   0.000000   # C_3
 407 1 5  -0.201466  18.981852   4.236658   0.107046   # N_3
 408 1 3  -0.161916  18.275832   6.939168   0.000000   # C_3
 409 1 3   0.049369  18.983197   9.556149   0.000000   # C_3
 410 1 5  -0.022052  21.375865   9.198432  26.777927   # N_3
 411 1 3   0.088544  17.339851   7.912803   0.000000   # C_3
 412 1 4   0.072243  18.006872   6.048910   0.000000   # H_
 413 1 3  -0.185197  17.657224   9.238776   0.000000   # C_3
 414 1 3   0.488320  16.600211  10.295789   0.000000   # C_3
 415 1 4   0.003559  19.227950  10.451786   0.000000   # H_
 416 1 4  -0.008560  16.444214   7.668050   0.000000   # H_
 417 1 2  -0.671872  17.014410  11.514178   0.000000   # O_3
 418 1 2  -0.671912  15.381822   9.881590   0.000000   # O_3
 419 1 3  -0.148230  21.875055   9.737428   1.165942   # C_3
 420 1 3   0.089653  18.661521   3.531445  25.750768   # C_3
 421 1 3   0.028585  23.307536  10.297940   1.069654   # C_3
 422 1 3  -0.122346  17.613652   2.435433  25.911606   # C_3
 423 1 4   0.056092  18.942584   3.569637   0.916347   # H_
 424 1 4   0.104375  21.393078   9.927583  26.030487   # H_
 425 1 3   0.052900  16.282032   2.940540  26.469429   # C_3
 426 1 4   0.039358  18.319672   4.283188  25.009515   # H_
 427 1 4   0.069853  21.897916   8.915486   1.908809   # H_
 428 1 4  -0.075542  16.288487   2.868996   0.675896   # H_
 429 1 4   0.019881  15.471924   2.292077  26.079706   # H_
 430 1 4   0.049143  16.064174   3.986525  26.160394   # H_
 431 1 3  -0.339295  23.355680  11.665333   0.404516   # C_3
 432 1 4   0.173298  22.981287  11.588948  26.263675   # H_
 433 1 4   0.068794  24.414575  12.013098   0.389723   # H_
 434 1 4   0.072749  22.735727  12.402284   0.951580   # H_
 435 1 4   0.054160  21.195662  10.522253   1.557278   # H_
 436 1 4   0.042101  19.541020   3.008856  25.319088   # H_
 437 1 4   0.002487  23.905165   9.590307   0.438943   # H_
 438 1 4   0.031406  23.768533  10.360877   2.069109   # H_
 439 1 4   0.075684  18.003376   1.607036  26.544200   # H_
 440 1 4   0.044495  17.416505   2.041675  24.897627   # H_
 441 1 2  -0.680963   0.000000   1.933822   3.566410   # O_3
 442 1 3   0.486153   0.000000   3.152211   3.152211   # C_3
 443 1 2  -0.680627   0.000000   3.566410   1.933822   # O_3
 444 1 3  -0.165857   0.000000   4.209224   4.209224   # C_3
 445 1 3   0.065168   0.000000   3.891851   5.535197   # C_3
 446 1 3   0.010655   0.000000   5.535197   3.891851   # C_3
 447 1 3  -0.134959   0.000000   4.827832   6.508832   # C_3
 448 1 4  -0.006939   0.000000   2.996214   5.779950   # H_
 449 1 3  -0.013203   0.000000   6.508832   4.827832   # C_3
 450 1 4   0.018044   0.000000   5.779950   2.996214   # H_
 451 1 3   0.016840   0.000000   6.204907   6.204907   # C_3
 452 1 3   0.007656   0.000000   7.243093   7.243093   # C_3
 453 1 4   0.058621   0.000000   4.558872   7.399090   # H_
 454 1 3  -0.007670   0.000000   6.939168   8.620168   # C_3
 455 1 5  -0.143300   0.709248   7.840991   4.366297   # N_3
 456 1 3  -0.125300   0.000000   8.620168   6.939168   # C_3
 457 1 3  -0.002336   0.000000   7.912803   9.556149   # C_3
 458 1 5  -0.194985   0.276760   5.539231   9.198163   # N_3
 459 1 3   0.055982   0.000000   9.556149   7.912803   # C_3
 460 1 4   0.065733   0.000000   8.889128   6.048910   # H_
 461 1 3  -0.156098   0.000000   9.238776   9.238776   # C_3
 462 1 3   0.477333   0.000000  10.295789  10.295789   # C_3
 463 1 4   0.019093   0.000000   7.668050  10.451786   # H_
 464 1 4   0.003461   0.000000  10.451786   7.668050   # H_
 465 1 2  -0.673445   0.000000   9.881590  11.514178   # O_3
 466 1 2  -0.672350   0.000000  11.514178   9.881590   # O_3
 467 1 3   0.041466  26.038556   5.087916  10.040815   # C_3
 468 1 3  -0.023113   2.112143   7.679884   4.040586   # C_3
 469 1 3   0.072953  26.352701   3.753875  10.748986   # C_3
 470 1 3  -0.047480   3.148177   7.762992   5.265699   # C_3
 471 1 4   0.038495   0.290746   8.057504   3.425475   # H_
 472 1 4   0.066311   1.179121   5.516101   9.725863   # H_
 473 1 3  -0.149101   4.368986   7.122330   4.707338   # C_3
 474 1 4   0.033012   2.119943   6.683387   3.489756   # H_
 475 1 4   0.045711  25.141574   4.914437   9.403917   # H_
 476 1 4   0.062283   4.082275   6.103240   4.426813   # H_
 477 1 4   0.057769   5.207872   7.032766   5.413358   # H_
 478 1 4   0.055064   4.674256   7.643843   3.759254   # H_
 479 1 3  -0.287678   0.485204   3.870334  11.851991   # C_3
 480 1 4   0.063569   1.499721   3.967429  11.414931   # H_
 481 1 4   0.021042   0.462342   3.001056  12.510136   # H_
 482 1 4   0.032622   0.265732   4.778343  12.416538   # H_
 483 1 4   0.067277  25.771209   5.846921  10.792558   # H_
 484 1 4   0.012929   2.423868   8.463364   3.303098   # H_
 485 1 4   0.056155  26.719562   3.038441   9.991864   # H_
 486 1 4   0.011455  25.421561   3.337256  11.201377   # H_
 487 1 4   0.046539   2.772440   7.276444   6.159991   # H_
 488 1 4   0.034765   3.290457   8.840715   5.489474   # H_