 (written by mofun)

920 atoms
0 bonds
0 angles
0 dihedrals
0 impropers

4 atom types
   0.000000  26.896000 xlo xhi
   0.000000  26.896000 ylo yhi
   0.000000  26.896000 zlo zhi

Masses

 1 91.2240   # Zr3+4
 2 15.9994   # O_3
 3 12.0107   # C_3
 4 1.0079   # H_

Pair Coeffs

 1   0.069000   2.783168 # Zr3+4
 2   0.060000   3.118146 # O_3
 3   0.105000   3.430851 # C_3
 4   0.044000   2.571134 # H_

Atoms

 1 1 1   3.186370   2.475508   0.000000   0.000000   # Zr3+4
 2 1 1   3.185570  24.420492   0.000000   0.000000   # Zr3+4
 3 1 1   3.186940   0.000000   2.475508   0.000000   # Zr3+4
 4 1 1   3.186090   0.000000  24.420492   0.000000   # Zr3+4
 5 1 1   3.185850   0.000000   0.000000   2.475508   # Zr3+4
 6 1 1   3.185100   0.000000   0.000000  24.420492   # Zr3+4
 7 1 1   3.214930   2.475508  13.448000  13.448000   # Zr3+4
 8 1 1   3.213710  24.420492  13.448000  13.448000   # Zr3+4
 9 1 1   3.200510   0.000000  15.923508  13.448000   # Zr3+4
 10 1 1   3.200460   0.000000  10.972492  13.448000   # Zr3+4
 11 1 1   3.200540   0.000000  13.448000  15.923508   # Zr3+4
 12 1 1   3.200450   0.000000  13.448000  10.972492   # Zr3+4
 13 1 1   3.200150  15.923508   0.000000  13.448000   # Zr3+4
 14 1 1   3.200110  10.972492   0.000000  13.448000   # Zr3+4
 15 1 1   3.215100  13.448000   2.475508  13.448000   # Zr3+4
 16 1 1   3.213840  13.448000  24.420492  13.448000   # Zr3+4
 17 1 1   3.200000  13.448000   0.000000  15.923508   # Zr3+4
 18 1 1   3.199950  13.448000   0.000000  10.972492   # Zr3+4
 19 1 1   3.201250  15.923508  13.448000   0.000000   # Zr3+4
 20 1 1   3.201200  10.972492  13.448000   0.000000   # Zr3+4
 21 1 1   3.200930  13.448000  15.923508   0.000000   # Zr3+4
 22 1 1   3.200880  13.448000  10.972492   0.000000   # Zr3+4
 23 1 1   3.215470  13.448000  13.448000   2.475508   # Zr3+4
 24 1 1   3.214310  13.448000  13.448000  24.420492   # Zr3+4
 25 1 2  -1.334610   1.221078   1.221078   1.221078   # O_3
 26 1 2  -1.128950  25.674922  25.674922   1.221078   # O_3
 27 1 2  -1.136360  25.674922   1.221078  25.674922   # O_3
 28 1 2  -1.132550   1.221078  25.674922  25.674922   # O_3
 29 1 2  -1.235260   1.221078   1.221078  25.674922   # O_3
 30 1 2  -1.036260  25.674922  25.674922  25.674922   # O_3
 31 1 2  -1.227630   1.221078  25.674922   1.221078   # O_3
 32 1 2  -1.231660  25.674922   1.221078   1.221078   # O_3
 33 1 2  -1.275870   1.221078  14.669078  14.669078   # O_3
 34 1 2  -1.174340  25.674922  12.226922  14.669078   # O_3
 35 1 2  -1.174420  25.674922  14.669078  12.226922   # O_3
 36 1 2  -1.275960   1.221078  12.226922  12.226922   # O_3
 37 1 2  -1.275160   1.221078  14.669078  12.226922   # O_3
 38 1 2  -1.173080  25.674922  12.226922  12.226922   # O_3
 39 1 2  -1.275140   1.221078  12.226922  14.669078   # O_3
 40 1 2  -1.173200  25.674922  14.669078  14.669078   # O_3
 41 1 2  -1.277460  14.669078   1.221078  14.669078   # O_3
 42 1 2  -1.172600  12.226922  25.674922  14.669078   # O_3
 43 1 2  -1.277460  12.226922   1.221078  12.226922   # O_3
 44 1 2  -1.172580  14.669078  25.674922  12.226922   # O_3
 45 1 2  -1.276310  14.669078   1.221078  12.226922   # O_3
 46 1 2  -1.169820  12.226922  25.674922  12.226922   # O_3
 47 1 2  -1.170000  14.669078  25.674922  14.669078   # O_3
 48 1 2  -1.276270  12.226922   1.221078  14.669078   # O_3
 49 1 2  -1.275650  14.669078  14.669078   1.221078   # O_3
 50 1 2  -1.275660  12.226922  12.226922   1.221078   # O_3
 51 1 2  -1.178570  12.226922  14.669078  25.674922   # O_3
 52 1 2  -1.178510  14.669078  12.226922  25.674922   # O_3
 53 1 2  -1.175250  14.669078  14.669078  25.674922   # O_3
 54 1 2  -1.175140  12.226922  12.226922  25.674922   # O_3
 55 1 2  -1.273710  14.669078  12.226922   1.221078   # O_3
 56 1 2  -1.273650  12.226922  14.669078   1.221078   # O_3
 57 1 2  -0.687397   3.566410   0.000000   1.933822   # O_3
 58 1 3   0.500208   3.152211   0.000000   3.152211   # C_3
 59 1 2  -0.687943   1.933822   0.000000   3.566410   # O_3
 60 1 3  -0.203502   4.209224   0.000000   4.209224   # C_3
 61 1 3   0.092022   5.535197   0.000000   3.891851   # C_3
 62 1 3   0.091473   3.891851   0.000000   5.535197   # C_3
 63 1 3  -0.142477   6.508832   0.000000   4.827832   # C_3
 64 1 4  -0.012853   5.779950   0.000000   2.996214   # H_
 65 1 3  -0.142082   4.827832   0.000000   6.508832   # C_3
 66 1 4  -0.013718   2.996214   0.000000   5.779950   # H_
 67 1 3   0.020725   6.204907   0.000000   6.204907   # C_3
 68 1 3   0.106153   7.243093   0.000000   7.243093   # C_3
 69 1 4   0.054443   7.399090   0.000000   4.558872   # H_
 70 1 3  -0.258516   8.620168   0.000000   6.939168   # C_3
 71 1 4   0.051684   4.558872   0.000000   7.399090   # H_
 72 1 3  -0.218909   6.939168   0.000000   8.620168   # C_3
 73 1 3   0.258762   9.556149   0.000000   7.912803   # C_3
 74 1 4   0.109832   8.889128   0.000000   6.048910   # H_
 75 1 3   0.167955   7.912803   0.000000   9.556149   # C_3
 76 1 4   0.081332   6.048910   0.000000   8.889128   # H_
 77 1 3  -0.281261   9.238776   0.000000   9.238776   # C_3
 78 1 3   0.524954  10.295789   0.000000  10.295789   # C_3
 79 1 2  -0.239678  10.936183   0.282408   7.447502   # O_3
 80 1 4  -0.031685   7.668050   0.000000  10.451786   # H_
 81 1 2  -0.670407  11.514178   0.000000   9.881590   # O_3
 82 1 2  -0.680338   9.881590   0.000000  11.514178   # O_3
 83 1 3   0.038100  10.944789   1.641732   6.969560   # C_3
 84 1 3  -0.070617  11.546722   1.706013   5.596789   # C_3
 85 1 4   0.035584  11.550487   2.221879   7.655408   # H_
 86 1 4   0.025071   9.967120   2.183148   6.943740   # H_
 87 1 4   0.029744  11.661837   2.784274   5.400986   # H_
 88 1 3  -0.126478  10.716980   1.136356   4.438647   # C_3
 89 1 4   0.018866  12.562315   1.225113   5.633367   # H_
 90 1 4   0.018365  10.510957   0.054599   4.520680   # H_
 91 1 4   0.012089  11.235535   1.358248   3.468239   # H_
 92 1 4   0.039156   9.745228   1.691489   4.457205   # H_
 93 1 2  -0.679535  23.329590   0.000000   1.933822   # O_3
 94 1 3   0.488295  23.743789   0.000000   3.152211   # C_3
 95 1 2  -0.609103  24.962178   0.000000   3.566410   # O_3
 96 1 3  -0.175744  22.686776   0.000000   4.209224   # C_3
 97 1 3   0.080607  21.360803   0.000000   3.891851   # C_3
 98 1 3   0.082175  23.004149   0.000000   5.535197   # C_3
 99 1 3  -0.137874  20.387168   0.000000   4.827832   # C_3
 100 1 4  -0.009709  21.116050   0.000000   2.996214   # H_
 101 1 3  -0.131518  22.068168   0.000000   6.508832   # C_3
 102 1 4   0.026828  23.899786   0.000000   5.779950   # H_
 103 1 3   0.033724  20.691093   0.000000   6.204907   # C_3
 104 1 3   0.053135  19.652907   0.000000   7.243093   # C_3
 105 1 4   0.040631  19.496910   0.000000   4.558872   # H_
 106 1 3  -0.162473  18.275832   0.000000   6.939168   # C_3
 107 1 4   0.064644  22.337128   0.000000   7.399090   # H_
 108 1 3  -0.168461  19.956832   0.000000   8.620168   # C_3
 109 1 3   0.086629  17.339851   0.000000   7.912803   # C_3
 110 1 4   0.039298  18.006872   0.000000   6.048910   # H_
 111 1 3   0.107082  18.983197   0.000000   9.556149   # C_3
 112 1 4   0.066091  20.847090   0.000000   8.889128   # H_
 113 1 3  -0.211892  17.657224   0.000000   9.238776   # C_3
 114 1 3   0.493327  16.600211   0.000000  10.295789   # C_3
 115 1 2  -0.052357  15.959817  26.613592   7.447502   # O_3
 116 1 4  -0.022720  19.227950   0.000000  10.451786   # H_
 117 1 2  -0.682308  15.381822   0.000000   9.881590   # O_3
 118 1 2  -0.678352  17.014410   0.000000  11.514178   # O_3
 119 1 3   0.009300  15.951211  25.254268   6.969560   # C_3
 120 1 3  -0.036394  15.349278  25.189987   5.596789   # C_3
 121 1 4   0.062199  15.345513  24.674121   7.655408   # H_
 122 1 4   0.068722  16.928880  24.712852   6.943740   # H_
 123 1 4   0.033273  15.234163  24.111726   5.400986   # H_
 124 1 3  -0.150176  16.179020  25.759644   4.438647   # C_3
 125 1 4   0.076890  14.333685  25.670887   5.633367   # H_
 126 1 4   0.116940  16.385043  26.841401   4.520680   # H_
 127 1 4   0.071200  15.660465  25.537483   3.468239   # H_
 128 1 4   0.086686  17.150772  25.204511   4.457205   # H_
 129 1 2  -0.601840  23.329590   0.000000  24.962178   # O_3
 130 1 3   0.470655  23.743789   0.000000  23.743789   # C_3
 131 1 2  -0.600009  24.962178   0.000000  23.329590   # O_3
 132 1 3  -0.125985  22.686776   0.000000  22.686776   # C_3
 133 1 3   0.046719  21.360803   0.000000  23.004149   # C_3
 134 1 3   0.046410  23.004149   0.000000  21.360803   # C_3
 135 1 3  -0.084812  20.387168   0.000000  22.068168   # C_3
 136 1 4   0.043240  21.116050   0.000000  23.899786   # H_
 137 1 3  -0.085001  22.068168   0.000000  20.387168   # C_3
 138 1 4   0.043086  23.899786   0.000000  21.116050   # H_
 139 1 3  -0.005377  20.691093   0.000000  20.691093   # C_3
 140 1 3   0.134665  19.652907   0.000000  19.652907   # C_3
 141 1 4   0.054105  19.496910   0.000000  22.337128   # H_
 142 1 3  -0.271143  18.275832   0.000000  19.956832   # C_3
 143 1 4   0.053175  22.337128   0.000000  19.496910   # H_
 144 1 3  -0.234952  19.956832   0.000000  18.275832   # C_3
 145 1 3   0.270357  17.339851   0.000000  18.983197   # C_3
 146 1 4   0.121820  18.006872   0.000000  20.847090   # H_
 147 1 3   0.185581  18.983197   0.000000  17.339851   # C_3
 148 1 4   0.098333  20.847090   0.000000  18.006872   # H_
 149 1 3  -0.289006  17.657224   0.000000  17.657224   # C_3
 150 1 3   0.528737  16.600211   0.000000  16.600211   # C_3
 151 1 2  -0.237821  15.959817   0.282408  19.448498   # O_3
 152 1 4  -0.034754  19.227950   0.000000  16.444214   # H_
 153 1 2  -0.670373  15.381822   0.000000  17.014410   # O_3
 154 1 2  -0.680313  17.014410   0.000000  15.381822   # O_3
 155 1 3   0.034675  15.951211   1.641732  19.926440   # C_3
 156 1 3  -0.063165  15.349278   1.706013  21.299211   # C_3
 157 1 4   0.037292  15.345513   2.221879  19.240592   # H_
 158 1 4   0.029440  16.928880   2.183148  19.952529   # H_
 159 1 4   0.034556  15.234163   2.784274  21.495014   # H_
 160 1 3  -0.137963  16.179020   1.136356  22.457353   # C_3
 161 1 4   0.025760  14.333685   1.225113  21.262633   # H_
 162 1 4   0.040912  16.385043   0.054599  22.375320   # H_
 163 1 4   0.047952  15.660465   1.358248  23.427761   # H_
 164 1 4   0.058036  17.150772   1.691489  22.438795   # H_
 165 1 2  -0.611452   3.566410   0.000000  24.962178   # O_3
 166 1 3   0.488713   3.152211   0.000000  23.743789   # C_3
 167 1 2  -0.680041   1.933822   0.000000  23.329590   # O_3
 168 1 3  -0.176495   4.209224   0.000000  22.686776   # C_3
 169 1 3   0.079851   5.535197   0.000000  23.004149   # C_3
 170 1 3   0.083515   3.891851   0.000000  21.360803   # C_3
 171 1 3  -0.129551   6.508832   0.000000  22.068168   # C_3
 172 1 4   0.025555   5.779950   0.000000  23.899786   # H_
 173 1 3  -0.140067   4.827832   0.000000  20.387168   # C_3
 174 1 4  -0.009526   2.996214   0.000000  21.116050   # H_
 175 1 3   0.033869   6.204907   0.000000  20.691093   # C_3
 176 1 3   0.052140   7.243093   0.000000  19.652907   # C_3
 177 1 4   0.053832   7.399090   0.000000  22.337128   # H_
 178 1 3  -0.161952   8.620168   0.000000  19.956832   # C_3
 179 1 4   0.050225   4.558872   0.000000  19.496910   # H_
 180 1 3  -0.166818   6.939168   0.000000  18.275832   # C_3
 181 1 3   0.088206   9.556149   0.000000  18.983197   # C_3
 182 1 4   0.044408   8.889128   0.000000  20.847090   # H_
 183 1 3   0.104158   7.912803   0.000000  17.339851   # C_3
 184 1 4   0.057336   6.048910   0.000000  18.006872   # H_
 185 1 3  -0.211346   9.238776   0.000000  17.657224   # C_3
 186 1 3   0.493130  10.295789   0.000000  16.600211   # C_3
 187 1 2  -0.050486  10.936183  26.613592  19.448498   # O_3
 188 1 4  -0.023759   7.668050   0.000000  16.444214   # H_
 189 1 2  -0.681665  11.514178   0.000000  17.014410   # O_3
 190 1 2  -0.678602   9.881590   0.000000  15.381822   # O_3
 191 1 3   0.006895  10.944789  25.254268  19.926440   # C_3
 192 1 3  -0.030315  11.546722  25.189987  21.299211   # C_3
 193 1 4   0.062906  11.550487  24.674121  19.240592   # H_
 194 1 4   0.070111   9.967120  24.712852  19.952529   # H_
 195 1 4   0.037438  11.661837  24.111726  21.495014   # H_
 196 1 3  -0.159926  10.716980  25.759644  22.457353   # C_3
 197 1 4   0.083396  12.562315  25.670887  21.262633   # H_
 198 1 4   0.136813  10.510957  26.841401  22.375320   # H_
 199 1 4   0.105183  11.235535  25.537483  23.427761   # H_
 200 1 4   0.102237   9.745228  25.204511  22.438795   # H_
 201 1 2  -0.685289   1.933822   3.566410   0.000000   # O_3
 202 1 3   0.506150   3.152211   3.152211   0.000000   # C_3
 203 1 2  -0.685977   3.566410   1.933822   0.000000   # O_3
 204 1 3  -0.218101   4.209224   4.209224   0.000000   # C_3
 205 1 3   0.112655   3.891851   5.535197   0.000000   # C_3
 206 1 3   0.113629   5.535197   3.891851   0.000000   # C_3
 207 1 3  -0.168711   4.827832   6.508832   0.000000   # C_3
 208 1 4  -0.018857   2.996214   5.779950   0.000000   # H_
 209 1 3  -0.170260   6.508832   4.827832   0.000000   # C_3
 210 1 4  -0.019973   5.779950   2.996214   0.000000   # H_
 211 1 3   0.058838   6.204907   6.204907   0.000000   # C_3
 212 1 3   0.035275   7.243093   7.243093   0.000000   # C_3
 213 1 4   0.060973   4.558872   7.399090   0.000000   # H_
 214 1 3  -0.139813   6.939168   8.620168   0.000000   # C_3
 215 1 4   0.063637   7.399090   4.558872   0.000000   # H_
 216 1 3  -0.145434   8.620168   6.939168   0.000000   # C_3
 217 1 3   0.081856   7.912803   9.556149   0.000000   # C_3
 218 1 4   0.047984   6.048910   8.889128   0.000000   # H_
 219 1 3   0.087204   9.556149   7.912803   0.000000   # C_3
 220 1 4   0.057899   8.889128   6.048910   0.000000   # H_
 221 1 3  -0.193178   9.238776   9.238776   0.000000   # C_3
 222 1 3   0.490912  10.295789  10.295789   0.000000   # C_3
 223 1 2   0.008884   7.519315  10.992933  26.887662   # O_3
 224 1 4  -0.002134  10.451786   7.668050   0.000000   # H_
 225 1 2  -0.672808   9.881590  11.514178   0.000000   # O_3
 226 1 2  -0.672778  11.514178   9.881590   0.000000   # O_3
 227 1 3  -0.072297   6.579568  11.248983   1.015324   # C_3
 228 1 3  -0.213866   5.134984  11.436986   0.494617   # C_3
 229 1 4   0.042674   6.833467  12.185502   1.518817   # H_
 230 1 4   0.044247   6.568541  10.449903   1.811715   # H_
 231 1 4   0.015357   5.031166  12.413311   0.004303   # H_
 232 1 3  -0.086750   4.157584  11.332630   1.624787   # C_3
 233 1 4   0.183089   4.804164  10.658616  26.675184   # H_
 234 1 4   0.033037   4.578775  11.811109   2.532796   # H_
 235 1 4   0.017062   3.965815  10.248452   1.815480   # H_
 236 1 4  -0.004251   3.172921  11.835585   1.427102   # H_
 237 1 2  -0.673917   1.933822  23.329590   0.000000   # O_3
 238 1 3   0.482090   3.152211  23.743789   0.000000   # C_3
 239 1 2  -0.601081   3.566410  24.962178   0.000000   # O_3
 240 1 3  -0.154446   4.209224  22.686776   0.000000   # C_3
 241 1 3   0.058680   3.891851  21.360803   0.000000   # C_3
 242 1 3   0.057469   5.535197  23.004149   0.000000   # C_3
 243 1 3  -0.106413   4.827832  20.387168   0.000000   # C_3
 244 1 4   0.001869   2.996214  21.116050   0.000000   # H_
 245 1 3  -0.097649   6.508832  22.068168   0.000000   # C_3
 246 1 4   0.038791   5.779950  23.899786   0.000000   # H_
 247 1 3  -0.005121   6.204907  20.691093   0.000000   # C_3
 248 1 3   0.129730   7.243093  19.652907   0.000000   # C_3
 249 1 4   0.039300   4.558872  19.496910   0.000000   # H_
 250 1 3  -0.282666   6.939168  18.275832   0.000000   # C_3
 251 1 4   0.052149   7.399090  22.337128   0.000000   # H_
 252 1 3  -0.244428   8.620168  19.956832   0.000000   # C_3
 253 1 3   0.272308   7.912803  17.339851   0.000000   # C_3
 254 1 4   0.104398   6.048910  18.006872   0.000000   # H_
 255 1 3   0.187196   9.556149  18.983197   0.000000   # C_3
 256 1 4   0.088268   8.889128  20.847090   0.000000   # H_
 257 1 3  -0.297739   9.238776  17.657224   0.000000   # C_3
 258 1 3   0.531052  10.295789  16.600211   0.000000   # C_3
 259 1 2  -0.304569   7.519315  15.903067   0.008338   # O_3
 260 1 4  -0.055945  10.451786  19.227950   0.000000   # H_
 261 1 2  -0.665685   9.881590  15.381822   0.000000   # O_3
 262 1 2  -0.691571  11.514178  17.014410   0.000000   # O_3
 263 1 3   0.139630   6.579568  15.647017  25.880676   # C_3
 264 1 3   0.085623   5.134984  15.459014  26.401383   # C_3
 265 1 4   0.036530   6.833467  14.710498  25.377183   # H_
 266 1 4   0.040225   6.568541  16.446097  25.084285   # H_
 267 1 4   0.069700   5.031166  14.482689  26.891697   # H_
 268 1 3  -0.185011   4.157584  15.563370  25.271213   # C_3
 269 1 4  -0.078444   4.804164  16.237384   0.220816   # H_
 270 1 4   0.065990   4.578775  15.084891  24.363204   # H_
 271 1 4   0.093679   3.965815  16.647548  25.080520   # H_
 272 1 4   0.081507   3.172921  15.060415  25.468898   # H_
 273 1 2  -0.596467  24.962178  23.329590   0.000000   # O_3
 274 1 3   0.475639  23.743789  23.743789   0.000000   # C_3
 275 1 2  -0.594462  23.329590  24.962178   0.000000   # O_3
 276 1 3  -0.137492  22.686776  22.686776   0.000000   # C_3
 277 1 3   0.066286  23.004149  21.360803   0.000000   # C_3
 278 1 3   0.067556  21.360803  23.004149   0.000000   # C_3
 279 1 3  -0.108584  22.068168  20.387168   0.000000   # C_3
 280 1 4   0.039710  23.899786  21.116050   0.000000   # H_
 281 1 3  -0.110469  20.387168  22.068168   0.000000   # C_3
 282 1 4   0.039847  21.116050  23.899786   0.000000   # H_
 283 1 3   0.032220  20.691093  20.691093   0.000000   # C_3
 284 1 3   0.066662  19.652907  19.652907   0.000000   # C_3
 285 1 4   0.062000  22.337128  19.496910   0.000000   # H_
 286 1 3  -0.154480  19.956832  18.275832   0.000000   # C_3
 287 1 4   0.066459  19.496910  22.337128   0.000000   # H_
 288 1 3  -0.163043  18.275832  19.956832   0.000000   # C_3
 289 1 3   0.096676  18.983197  17.339851   0.000000   # C_3
 290 1 4   0.062349  20.847090  18.006872   0.000000   # H_
 291 1 3   0.106910  17.339851  18.983197   0.000000   # C_3
 292 1 4   0.076288  18.006872  20.847090   0.000000   # H_
 293 1 3  -0.202221  17.657224  17.657224   0.000000   # C_3
 294 1 3   0.495471  16.600211  16.600211   0.000000   # C_3
 295 1 2   0.006964  19.376685  15.903067  26.887662   # O_3
 296 1 4  -0.005633  16.444214  19.227950   0.000000   # H_
 297 1 2  -0.672669  17.014410  15.381822   0.000000   # O_3
 298 1 2  -0.672795  15.381822  17.014410   0.000000   # O_3
 299 1 3  -0.073314  20.316432  15.647017   1.015324   # C_3
 300 1 3  -0.204330  21.761016  15.459014   0.494617   # C_3
 301 1 4   0.045212  20.062533  14.710498   1.518817   # H_
 302 1 4   0.049112  20.327459  16.446097   1.811715   # H_
 303 1 4   0.025041  21.864834  14.482689   0.004303   # H_
 304 1 3  -0.099616  22.738416  15.563370   1.624787   # C_3
 305 1 4   0.196188  22.091836  16.237384  26.675184   # H_
 306 1 4   0.052580  22.317225  15.084891   2.532796   # H_
 307 1 4   0.048313  22.930185  16.647548   1.815480   # H_
 308 1 4   0.042409  23.723079  15.060415   1.427102   # H_
 309 1 2  -0.603307  24.962178   3.566410   0.000000   # O_3
 310 1 3   0.482522  23.743789   3.152211   0.000000   # C_3
 311 1 2  -0.675071  23.329590   1.933822   0.000000   # O_3
 312 1 3  -0.155641  22.686776   4.209224   0.000000   # C_3
 313 1 3   0.058384  23.004149   5.535197   0.000000   # C_3
 314 1 3   0.058577  21.360803   3.891851   0.000000   # C_3
 315 1 3  -0.098104  22.068168   6.508832   0.000000   # C_3
 316 1 4   0.038630  23.899786   5.779950   0.000000   # H_
 317 1 3  -0.107201  20.387168   4.827832   0.000000   # C_3
 318 1 4   0.000023  21.116050   2.996214   0.000000   # H_
 319 1 3  -0.004749  20.691093   6.204907   0.000000   # C_3
 320 1 3   0.128222  19.652907   7.243093   0.000000   # C_3
 321 1 4   0.054042  22.337128   7.399090   0.000000   # H_
 322 1 3  -0.281475  19.956832   8.620168   0.000000   # C_3
 323 1 4   0.035864  19.496910   4.558872   0.000000   # H_
 324 1 3  -0.242449  18.275832   6.939168   0.000000   # C_3
 325 1 3   0.272720  18.983197   9.556149   0.000000   # C_3
 326 1 4   0.109912  20.847090   8.889128   0.000000   # H_
 327 1 3   0.183572  17.339851   7.912803   0.000000   # C_3
 328 1 4   0.078378  18.006872   6.048910   0.000000   # H_
 329 1 3  -0.296751  17.657224   9.238776   0.000000   # C_3
 330 1 3   0.530637  16.600211  10.295789   0.000000   # C_3
 331 1 2  -0.301778  19.376685  10.992933   0.008338   # O_3
 332 1 4  -0.057229  16.444214   7.668050   0.000000   # H_
 333 1 2  -0.665222  17.014410  11.514178   0.000000   # O_3
 334 1 2  -0.691945  15.381822   9.881590   0.000000   # O_3
 335 1 3   0.136829  20.316432  11.248983  25.880676   # C_3
 336 1 3   0.090163  21.761016  11.436986  26.401383   # C_3
 337 1 4   0.038981  20.062533  12.185502  25.377183   # H_
 338 1 4   0.043695  20.327459  10.449903  25.084285   # H_
 339 1 4   0.078437  21.864834  12.413311  26.891697   # H_
 340 1 3  -0.195552  22.738416  11.332630  25.271213   # C_3
 341 1 4  -0.062576  22.091836  10.658616   0.220816   # H_
 342 1 4   0.084165  22.317225  11.811109  24.363204   # H_
 343 1 4   0.121350  22.930185  10.248452  25.080520   # H_
 344 1 4   0.125979  23.723079  11.835585  25.468898   # H_
 345 1 2  -0.687806   0.000000   1.933822   3.566410   # O_3
 346 1 3   0.506148   0.000000   3.152211   3.152211   # C_3
 347 1 2  -0.686716   0.000000   3.566410   1.933822   # O_3
 348 1 3  -0.219401   0.000000   4.209224   4.209224   # C_3
 349 1 3   0.114023   0.000000   3.891851   5.535197   # C_3
 350 1 3   0.113717   0.000000   5.535197   3.891851   # C_3
 351 1 3  -0.170914   0.000000   4.827832   6.508832   # C_3
 352 1 4  -0.020765   0.000000   2.996214   5.779950   # H_
 353 1 3  -0.169984   0.000000   6.508832   4.827832   # C_3
 354 1 4  -0.019425   0.000000   5.779950   2.996214   # H_
 355 1 3   0.057733   0.000000   6.204907   6.204907   # C_3
 356 1 3   0.039570   0.000000   7.243093   7.243093   # C_3
 357 1 4   0.063045   0.000000   4.558872   7.399090   # H_
 358 1 3  -0.148277   0.000000   6.939168   8.620168   # C_3
 359 1 4   0.064008   0.000000   7.399090   4.558872   # H_
 360 1 3  -0.150308   0.000000   8.620168   6.939168   # C_3
 361 1 3   0.087315   0.000000   7.912803   9.556149   # C_3
 362 1 4   0.056598   0.000000   6.048910   8.889128   # H_
 363 1 3   0.093171   0.000000   9.556149   7.912803   # C_3
 364 1 4   0.058468   0.000000   8.889128   6.048910   # H_
 365 1 3  -0.199125   0.000000   9.238776   9.238776   # C_3
 366 1 3   0.492725   0.000000  10.295789  10.295789   # C_3
 367 1 2   0.002491  26.768782   7.482736  10.959313   # O_3
 368 1 4  -0.007505   0.000000  10.451786   7.668050   # H_
 369 1 2  -0.677182   0.000000   9.881590  11.514178   # O_3
 370 1 2  -0.676907   0.000000  11.514178   9.881590   # O_3
 371 1 3  -0.076718   1.012365   6.715393  11.354146   # C_3
 372 1 3  -0.205456   0.777563   5.205183  11.080076   # C_3
 373 1 4   0.027798   1.123446   6.849335  12.446662   # H_
 374 1 4   0.054921   1.978470   7.007753  10.904445   # H_
 375 1 4   0.030488   1.013979   4.660539  12.019822   # H_
 376 1 3  -0.093467   1.615105   4.517990   9.982450   # C_3
 377 1 4   0.175278  26.580510   5.023635  10.876742   # H_
 378 1 4   0.033062   2.566147   4.128536  10.409290   # H_
 379 1 4   0.042238   1.816825   5.129874   9.078476   # H_
 380 1 4   0.000957   0.995152   3.651670   9.650554   # H_
 381 1 2  -0.677371   0.000000   1.933822  23.329590   # O_3
 382 1 3   0.483257   0.000000   3.152211  23.743789   # C_3
 383 1 2  -0.607627   0.000000   3.566410  24.962178   # O_3
 384 1 3  -0.159051   0.000000   4.209224  22.686776   # C_3
 385 1 3   0.059360   0.000000   3.891851  21.360803   # C_3
 386 1 3   0.061823   0.000000   5.535197  23.004149   # C_3
 387 1 3  -0.109647   0.000000   4.827832  20.387168   # C_3
 388 1 4  -0.002360   0.000000   2.996214  21.116050   # H_
 389 1 3  -0.102869   0.000000   6.508832  22.068168   # C_3
 390 1 4   0.036026   0.000000   5.779950  23.899786   # H_
 391 1 3  -0.002299   0.000000   6.204907  20.691093   # C_3
 392 1 3   0.122484   0.000000   7.243093  19.652907   # C_3
 393 1 4   0.029645   0.000000   4.558872  19.496910   # H_
 394 1 3  -0.275894   0.000000   6.939168  18.275832   # C_3
 395 1 4   0.059095   0.000000   7.399090  22.337128   # H_
 396 1 3  -0.231557   0.000000   8.620168  19.956832   # C_3
 397 1 3   0.268628   0.000000   7.912803  17.339851   # C_3
 398 1 4   0.093797   0.000000   6.048910  18.006872   # H_
 399 1 3   0.181302   0.000000   9.556149  18.983197   # C_3
 400 1 4   0.098574   0.000000   8.889128  20.847090   # H_
 401 1 3  -0.290985   0.000000   9.238776  17.657224   # C_3
 402 1 3   0.529258   0.000000  10.295789  16.600211   # C_3
 403 1 2  -0.301003   0.127218   7.482736  15.936687   # O_3
 404 1 4  -0.031518   0.000000  10.451786  19.227950   # H_
 405 1 2  -0.671525   0.000000   9.881590  15.381822   # O_3
 406 1 2  -0.683049   0.000000  11.514178  17.014410   # O_3
 407 1 3   0.131070  25.883635   6.715393  15.541854   # C_3
 408 1 3   0.097757  26.118437   5.205183  15.815924   # C_3
 409 1 4   0.049379  25.772285   6.849335  14.449338   # H_
 410 1 4   0.034839  24.917530   7.007753  15.991555   # H_
 411 1 4   0.026915  25.882021   4.660539  14.876178   # H_
 412 1 3  -0.196945  25.280895   4.517990  16.913281   # C_3
 413 1 4  -0.074835   0.315221   5.023635  16.019258   # H_
 414 1 4   0.068995  24.330122   4.128536  16.486710   # H_
 415 1 4   0.114782  25.079175   5.129874  17.817524   # H_
 416 1 4   0.105917  25.900848   3.651670  17.245177   # H_
 417 1 2  -0.596635   0.000000  24.962178  23.329590   # O_3
 418 1 3   0.475977   0.000000  23.743789  23.743789   # C_3
 419 1 2  -0.600743   0.000000  23.329590  24.962178   # O_3
 420 1 3  -0.139836   0.000000  22.686776  22.686776   # C_3
 421 1 3   0.066926   0.000000  23.004149  21.360803   # C_3
 422 1 3   0.068181   0.000000  21.360803  23.004149   # C_3
 423 1 3  -0.110629   0.000000  22.068168  20.387168   # C_3
 424 1 4   0.038349   0.000000  23.899786  21.116050   # H_
 425 1 3  -0.111797   0.000000  20.387168  22.068168   # C_3
 426 1 4   0.037349   0.000000  21.116050  23.899786   # H_
 427 1 3   0.031017   0.000000  20.691093  20.691093   # C_3
 428 1 3   0.068970   0.000000  19.652907  19.652907   # C_3
 429 1 4   0.061101   0.000000  22.337128  19.496910   # H_
 430 1 3  -0.161413   0.000000  19.956832  18.275832   # C_3
 431 1 4   0.066782   0.000000  19.496910  22.337128   # H_
 432 1 3  -0.165424   0.000000  18.275832  19.956832   # C_3
 433 1 3   0.100295   0.000000  18.983197  17.339851   # C_3
 434 1 4   0.067950   0.000000  20.847090  18.006872   # H_
 435 1 3   0.111026   0.000000  17.339851  18.983197   # C_3
 436 1 4   0.078492   0.000000  18.006872  20.847090   # H_
 437 1 3  -0.206237   0.000000  17.657224  17.657224   # C_3
 438 1 3   0.496561   0.000000  16.600211  16.600211   # C_3
 439 1 2   0.000693  26.768782  19.412995  15.936687   # O_3
 440 1 4  -0.006521   0.000000  16.444214  19.227950   # H_
 441 1 2  -0.676962   0.000000  17.014410  15.381822   # O_3
 442 1 2  -0.675223   0.000000  15.381822  17.014410   # O_3
 443 1 3  -0.076054   1.012365  20.180607  15.541854   # C_3
 444 1 3  -0.200883   0.777563  21.690817  15.815924   # C_3
 445 1 4   0.029970   1.123446  20.046665  14.449338   # H_
 446 1 4   0.056790   1.978470  19.888247  15.991555   # H_
 447 1 4   0.043415   1.013979  22.235461  14.876178   # H_
 448 1 3  -0.102229   1.615105  22.378010  16.913281   # C_3
 449 1 4   0.186374  26.580510  21.872365  16.019258   # H_
 450 1 4   0.053316   2.566147  22.767464  16.486710   # H_
 451 1 4   0.054868   1.816825  21.766126  17.817524   # H_
 452 1 4   0.036005   0.995152  23.244330  17.245177   # H_
 453 1 2  -0.603014   0.000000  24.962178   3.566410   # O_3
 454 1 3   0.481514   0.000000  23.743789   3.152211   # C_3
 455 1 2  -0.675166   0.000000  23.329590   1.933822   # O_3
 456 1 3  -0.154346   0.000000  22.686776   4.209224   # C_3
 457 1 3   0.054031   0.000000  23.004149   5.535197   # C_3
 458 1 3   0.058623   0.000000  21.360803   3.891851   # C_3
 459 1 3  -0.096161   0.000000  22.068168   6.508832   # C_3
 460 1 4   0.037024   0.000000  23.899786   5.779950   # H_
 461 1 3  -0.107112   0.000000  20.387168   4.827832   # C_3
 462 1 4   0.001966   0.000000  21.116050   2.996214   # H_
 463 1 3  -0.005627   0.000000  20.691093   6.204907   # C_3
 464 1 3   0.122615   0.000000  19.652907   7.243093   # C_3
 465 1 4   0.040535   0.000000  22.337128   7.399090   # H_
 466 1 3  -0.276010   0.000000  19.956832   8.620168   # C_3
 467 1 4   0.041995   0.000000  19.496910   4.558872   # H_
 468 1 3  -0.231926   0.000000  18.275832   6.939168   # C_3
 469 1 3   0.269444   0.000000  18.983197   9.556149   # C_3
 470 1 4   0.098139   0.000000  20.847090   8.889128   # H_
 471 1 3   0.179189   0.000000  17.339851   7.912803   # C_3
 472 1 4   0.087692   0.000000  18.006872   6.048910   # H_
 473 1 3  -0.291535   0.000000  17.657224   9.238776   # C_3
 474 1 3   0.529312   0.000000  16.600211  10.295789   # C_3
 475 1 2  -0.298644   0.127218  19.412995  10.959313   # O_3
 476 1 4  -0.036546   0.000000  16.444214   7.668050   # H_
 477 1 2  -0.671324   0.000000  17.014410  11.514178   # O_3
 478 1 2  -0.684882   0.000000  15.381822   9.881590   # O_3
 479 1 3   0.130158  25.883635  20.180607  11.354146   # C_3
 480 1 3   0.097323  26.118437  21.690817  11.080076   # C_3
 481 1 4   0.051174  25.772285  20.046665  12.446662   # H_
 482 1 4   0.035519  24.917530  19.888247  10.904445   # H_
 483 1 4   0.039933  25.882021  22.235461  12.019822   # H_
 484 1 3  -0.202735  25.280895  22.378010   9.982450   # C_3
 485 1 4  -0.060853   0.315221  21.872365  10.876742   # H_
 486 1 4   0.086486  24.330122  22.767464  10.409290   # H_
 487 1 4   0.122732  25.079175  21.766126   9.078476   # H_
 488 1 4   0.137512  25.900848  23.244330   9.650554   # H_