 (written by mofun)

456 atoms
0 bonds
0 angles
0 dihedrals
0 impropers

4 atom types
   0.000000  20.700400 xlo xhi
   0.000000  20.700400 ylo yhi
   0.000000  20.700400 zlo zhi

Masses

 1 91.2240   # Zr3+4
 2 15.9994   # O_3
 3 12.0107   # C_3
 4 1.0079   # H_

Pair Coeffs

 1   0.069000   2.783168 # Zr3+4
 2   0.060000   3.118146 # O_3
 3   0.105000   3.430851 # C_3
 4   0.044000   2.571134 # H_

Atoms

 1 1 1   3.166730   2.481771   0.000000   0.000000   # Zr3+4
 2 1 1   3.190690   2.481771  10.350200  10.350200   # Zr3+4
 3 1 1   3.175950  12.831971   0.000000  10.350200   # Zr3+4
 4 1 1   3.180160  12.831971  10.350200   0.000000   # Zr3+4
 5 1 1   3.164720  18.218629   0.000000   0.000000   # Zr3+4
 6 1 1   3.191340  18.218629  10.350200  10.350200   # Zr3+4
 7 1 1   3.178370   7.868429   0.000000  10.350200   # Zr3+4
 8 1 1   3.177150   7.868429  10.350200   0.000000   # Zr3+4
 9 1 1   3.166730   0.000000   2.481771   0.000000   # Zr3+4
 10 1 1   3.144150   0.000000  12.831971  10.350200   # Zr3+4
 11 1 1   3.190690  10.350200   2.481771  10.350200   # Zr3+4
 12 1 1   3.180160  10.350200  12.831971   0.000000   # Zr3+4
 13 1 1   3.164720   0.000000  18.218629   0.000000   # Zr3+4
 14 1 1   3.210150   0.000000   7.868429  10.350200   # Zr3+4
 15 1 1   3.191330  10.350200  18.218629  10.350200   # Zr3+4
 16 1 1   3.177170  10.350200   7.868429   0.000000   # Zr3+4
 17 1 1   3.196510   0.000000   0.000000   2.481771   # Zr3+4
 18 1 1   3.175930   0.000000  10.350200  12.831971   # Zr3+4
 19 1 1   3.144130  10.350200   0.000000  12.831971   # Zr3+4
 20 1 1   3.191270  10.350200  10.350200   2.481771   # Zr3+4
 21 1 1   3.133170   0.000000   0.000000  18.218629   # Zr3+4
 22 1 1   3.178380   0.000000  10.350200   7.868429   # Zr3+4
 23 1 1   3.210150  10.350200   0.000000   7.868429   # Zr3+4
 24 1 1   3.191890  10.350200  10.350200  18.218629   # Zr3+4
 25 1 2  -1.315410   1.161292   9.188908   9.188908   # O_3
 26 1 2  -1.209780  11.511492  19.539108   9.188908   # O_3
 27 1 2  -1.318800  11.511492   9.188908  19.539108   # O_3
 28 1 2  -1.315410   9.188908   1.161292   9.188908   # O_3
 29 1 2  -1.318930   9.188908  11.511492  19.539108   # O_3
 30 1 2  -1.163100  19.539108  19.539108   1.161292   # O_3
 31 1 2  -1.209920  19.539108   9.188908  11.511492   # O_3
 32 1 2  -1.374300   1.161292   1.161292   1.161292   # O_3
 33 1 2  -1.418510  11.511492  11.511492   1.161292   # O_3
 34 1 2  -1.350790  19.539108   1.161292   1.161292   # O_3
 35 1 2  -1.432450  19.539108  11.511492  11.511492   # O_3
 36 1 2  -1.537810   9.188908   1.161292  11.511492   # O_3
 37 1 2  -1.425740   9.188908  11.511492   1.161292   # O_3
 38 1 2  -1.350770   1.161292  19.539108   1.161292   # O_3
 39 1 2  -1.410700   1.161292   9.188908  11.511492   # O_3
 40 1 2  -1.432480  11.511492  19.539108  11.511492   # O_3
 41 1 2  -1.425770  11.511492   9.188908   1.161292   # O_3
 42 1 2  -1.274320  19.539108  19.539108  19.539108   # O_3
 43 1 2  -1.294590  19.539108   9.188908   9.188908   # O_3
 44 1 2  -1.294620   9.188908  19.539108   9.188908   # O_3
 45 1 2  -1.327890   9.188908   9.188908  19.539108   # O_3
 46 1 2  -1.480420   1.161292   1.161292  19.539108   # O_3
 47 1 2  -1.537790   1.161292  11.511492   9.188908   # O_3
 48 1 2  -1.410680  11.511492   1.161292   9.188908   # O_3
 49 1 3   0.520169   3.179581   0.000000  17.520819   # C_3
 50 1 2  -0.711238   3.528590   0.000000  18.727859   # O_3
 51 1 2  -0.784124   1.972541   0.000000  17.171810   # O_3
 52 1 3  -0.104952   4.243582   0.000000  16.456818   # C_3
 53 1 3  -0.077116   3.816533   0.000000  15.162836   # C_3
 54 1 4   0.038499   2.700574   0.000000  14.930785   # H_
 55 1 2  -0.321885   4.483707   0.066241  12.777736   # O_3
 56 1 3   0.202221   4.812636   0.000000  14.167768   # C_3
 57 1 3  -0.242535   6.106618   0.000000  14.593782   # C_3
 58 1 3   0.062842   6.532632   0.000000  15.887764   # C_3
 59 1 3  -0.021857   5.537564   0.000000  16.883867   # C_3
 60 1 4   0.061005   5.769615   0.000000  17.999826   # H_
 61 1 4   0.025946   7.648591   0.000000  16.119815   # H_
 62 1 2  -0.792893   8.377452   0.000000  13.878790   # O_3
 63 1 3   0.571827   7.170619   0.000000  13.529781   # C_3
 64 1 2  -0.772101   6.821610   0.000000  12.322741   # O_3
 65 1 4   0.148869   4.326591   1.024256  12.549410   # H_
 66 1 3   0.534024   3.179581  10.350200   7.170619   # C_3
 67 1 2  -0.651234   3.528590  10.350200   8.377659   # O_3
 68 1 2  -0.660119   1.972541  10.350200   6.821610   # O_3
 69 1 3  -0.098760   4.243582  10.350200   6.106618   # C_3
 70 1 3  -0.063374   3.816533  10.350200   4.812636   # C_3
 71 1 4   0.055268   2.700574  10.350200   4.580585   # H_
 72 1 2  -0.294705   4.483914  10.416441   2.427536   # O_3
 73 1 3   0.209575   4.812636  10.350200   3.817568   # C_3
 74 1 3  -0.224409   6.106618  10.350200   4.243582   # C_3
 75 1 3   0.064421   6.532632  10.350200   5.537564   # C_3
 76 1 3  -0.013563   5.537564  10.350200   6.533667   # C_3
 77 1 4   0.049839   5.769615  10.350200   7.649626   # H_
 78 1 4   0.036550   7.648591  10.350200   5.769615   # H_
 79 1 2  -0.743401   8.377452  10.350200   3.528590   # O_3
 80 1 3   0.571007   7.170619  10.350200   3.179581   # C_3
 81 1 2  -0.739679   6.821610  10.350200   1.972541   # O_3
 82 1 4   0.143127   4.331559  11.375698   2.201074   # H_
 83 1 3   0.528164  13.529781   0.000000   7.170619   # C_3
 84 1 2  -0.695885  13.878790   0.000000   8.377659   # O_3
 85 1 2  -0.688950  12.322741   0.000000   6.821610   # O_3
 86 1 3  -0.114439  14.593782   0.000000   6.106618   # C_3
 87 1 3  -0.070858  14.166733   0.000000   4.812636   # C_3
 88 1 4   0.041199  13.050774   0.000000   4.580585   # H_
 89 1 2  -0.320667  14.834321   0.066448   2.427536   # O_3
 90 1 3   0.199463  15.162629   0.000000   3.817568   # C_3
 91 1 3  -0.220284  16.456611   0.000000   4.243582   # C_3
 92 1 3   0.058509  16.882832   0.000000   5.537564   # C_3
 93 1 3  -0.014330  15.887764   0.000000   6.533667   # C_3
 94 1 4   0.040762  16.119815   0.000000   7.649626   # H_
 95 1 4   0.051754  17.998791   0.000000   5.769615   # H_
 96 1 2  -0.629720  18.727652   0.000000   3.528590   # O_3
 97 1 3   0.568567  17.520612   0.000000   3.179581   # C_3
 98 1 2  -0.692337  17.171603   0.000000   1.972541   # O_3
 99 1 4   0.145931  14.688383   1.027568   2.203765   # H_
 100 1 3   0.516743  13.529781  10.350200  17.520819   # C_3
 101 1 2  -0.662590  13.878790  10.350200  18.727859   # O_3
 102 1 2  -0.720287  12.322741  10.350200  17.171810   # O_3
 103 1 3  -0.084323  14.593782  10.350200  16.456818   # C_3
 104 1 3  -0.060231  14.166733  10.350200  15.162836   # C_3
 105 1 4   0.066139  13.050774  10.350200  14.930785   # H_
 106 1 2  -0.279334  14.834321  10.416648  12.777736   # O_3
 107 1 3   0.213364  15.162629  10.350200  14.167768   # C_3
 108 1 3  -0.202130  16.456611  10.350200  14.593782   # C_3
 109 1 3   0.081334  16.882832  10.350200  15.887764   # C_3
 110 1 3   0.002139  15.887764  10.350200  16.883867   # C_3
 111 1 4   0.095191  16.119815  10.350200  17.999826   # H_
 112 1 4   0.084457  17.998791  10.350200  16.119815   # H_
 113 1 2  -0.590151  18.727652  10.350200  13.878790   # O_3
 114 1 3   0.571331  17.520612  10.350200  13.529781   # C_3
 115 1 2  -0.638876  17.171603  10.350200  12.322741   # O_3
 116 1 4   0.151341  14.689418  11.377975  12.554586   # H_
 117 1 3   0.509613  17.520819   0.000000  17.520819   # C_3
 118 1 2  -0.704294  17.171810   0.000000  18.727859   # O_3
 119 1 2  -0.705335  18.727859   0.000000  17.171810   # O_3
 120 1 3  -0.082788  16.456818   0.000000  16.456818   # C_3
 121 1 3  -0.071595  16.883867   0.000000  15.162836   # C_3
 122 1 4   0.089341  17.999826   0.000000  14.930785   # H_
 123 1 2  -0.298928  16.194751   0.074521  12.781048   # O_3
 124 1 3   0.217488  15.887971   0.000000  14.167768   # C_3
 125 1 3  -0.248226  14.593989   0.000000  14.593782   # C_3
 126 1 3   0.069263  14.167768   0.000000  15.887764   # C_3
 127 1 3  -0.026861  15.162836   0.000000  16.883867   # C_3
 128 1 4   0.064303  14.930785   0.000000  17.999826   # H_
 129 1 4   0.018611  13.051809   0.000000  16.119815   # H_
 130 1 2  -0.804441  12.322948   0.000000  13.878790   # O_3
 131 1 3   0.572484  13.529988   0.000000  13.529781   # C_3
 132 1 2  -0.778653  13.878997   0.000000  12.322741   # O_3
 133 1 4   0.157366  16.141551   1.050545  12.575700   # H_
 134 1 3   0.514173  17.520819  10.350200   7.170619   # C_3
 135 1 2  -0.721440  17.171810  10.350200   8.377659   # O_3
 136 1 2  -0.659043  18.727859  10.350200   6.821610   # O_3
 137 1 3  -0.079521  16.456818  10.350200   6.106618   # C_3
 138 1 3  -0.059028  16.883867  10.350200   4.812636   # C_3
 139 1 4   0.105904  17.999826  10.350200   4.580585   # H_
 140 1 2  -0.275201  16.191853  10.424928   2.429813   # O_3
 141 1 3   0.225672  15.887971  10.350200   3.817568   # C_3
 142 1 3  -0.226692  14.593989  10.350200   4.243582   # C_3
 143 1 3   0.072119  14.167768  10.350200   5.537564   # C_3
 144 1 3  -0.019324  15.162836  10.350200   6.533667   # C_3
 145 1 4   0.053044  14.930785  10.350200   7.649626   # H_
 146 1 4   0.029633  13.051809  10.350200   5.769615   # H_
 147 1 2  -0.664677  12.322948  10.350200   3.528590   # O_3
 148 1 3   0.581361  13.529988  10.350200   3.179581   # C_3
 149 1 2  -0.654841  13.878997  10.350200   1.972541   # O_3
 150 1 4   0.158071  16.109672  11.397640   2.221774   # H_
 151 1 3   0.525780   7.170619   0.000000   7.170619   # C_3
 152 1 2  -0.699807   6.821610   0.000000   8.377659   # O_3
 153 1 2  -0.685823   8.377659   0.000000   6.821610   # O_3
 154 1 3  -0.111625   6.106618   0.000000   6.106618   # C_3
 155 1 3  -0.075559   6.533667   0.000000   4.812636   # C_3
 156 1 4   0.049130   7.649626   0.000000   4.580585   # H_
 157 1 2  -0.325036   5.837306   0.074935   2.427743   # O_3
 158 1 3   0.203493   5.537564   0.000000   3.817568   # C_3
 159 1 3  -0.244759   4.243582   0.000000   4.243582   # C_3
 160 1 3   0.054562   3.817568   0.000000   5.537564   # C_3
 161 1 3  -0.030254   4.812636   0.000000   6.533667   # C_3
 162 1 4   0.025904   4.580585   0.000000   7.649626   # H_
 163 1 4   0.002014   2.701609   0.000000   5.769615   # H_
 164 1 2  -0.710465   1.972748   0.000000   3.528590   # O_3
 165 1 3   0.578599   3.179581   0.000000   3.179581   # C_3
 166 1 2  -0.703295   3.528590   0.000000   1.972541   # O_3
 167 1 4   0.150900   5.702753   1.040402   2.219083   # H_
 168 1 3   0.523564   7.170619  10.350200  17.520819   # C_3
 169 1 2  -0.590599   6.821610  10.350200  18.727859   # O_3
 170 1 2  -0.639539   8.377659  10.350200  17.171810   # O_3
 171 1 3  -0.078054   6.106618  10.350200  16.456818   # C_3
 172 1 3  -0.064059   6.533667  10.350200  15.162836   # C_3
 173 1 4   0.074959   7.649626  10.350200  14.930785   # H_
 174 1 2  -0.278823   5.847656  10.424721  12.782083   # O_3
 175 1 3   0.217528   5.537564  10.350200  14.167768   # C_3
 176 1 3  -0.229604   4.243582  10.350200  14.593782   # C_3
 177 1 3   0.076211   3.817568  10.350200  15.887764   # C_3
 178 1 3  -0.013111   4.812636  10.350200  16.883867   # C_3
 179 1 4   0.080841   4.580585  10.350200  17.999826   # H_
 180 1 4   0.033966   2.701609  10.350200  16.119815   # H_
 181 1 2  -0.756209   1.972748  10.350200  13.878790   # O_3
 182 1 3   0.572225   3.179581  10.350200  13.529781   # C_3
 183 1 2  -0.733967   3.528590  10.350200  12.322741   # O_3
 184 1 4   0.146026   5.823851  11.402815  12.580668   # H_
 185 1 3   0.516862  17.520819   3.179581   0.000000   # C_3
 186 1 2  -0.703771  18.727859   3.528590   0.000000   # O_3
 187 1 2  -0.771054  17.171810   1.972541   0.000000   # O_3
 188 1 3  -0.101546  16.456818   4.243582   0.000000   # C_3
 189 1 3  -0.076124  15.162836   3.816533   0.000000   # C_3
 190 1 4   0.040482  14.930785   2.700574   0.000000   # H_
 191 1 2  -0.317335  12.777736   4.483914   0.066448   # O_3
 192 1 3   0.203812  14.167768   4.812636   0.000000   # C_3
 193 1 3  -0.236514  14.593782   6.106618   0.000000   # C_3
 194 1 3   0.065104  15.887764   6.532632   0.000000   # C_3
 195 1 3  -0.020338  16.883867   5.537564   0.000000   # C_3
 196 1 4   0.065068  17.999826   5.769615   0.000000   # H_
 197 1 4   0.028920  16.119815   7.648591   0.000000   # H_
 198 1 2  -0.700318  13.878790   8.377452   0.000000   # O_3
 199 1 3   0.577626  13.529781   7.170619   0.000000   # C_3
 200 1 2  -0.691268  12.322741   6.821610   0.000000   # O_3
 201 1 4   0.147640  12.552102   4.332594   1.026119   # H_
 202 1 3   0.519873  17.520819  13.529781  10.350200   # C_3
 203 1 2  -0.669724  18.727859  13.878790  10.350200   # O_3
 204 1 2  -0.721024  17.171810  12.322741  10.350200   # O_3
 205 1 3  -0.084204  16.456818  14.593782  10.350200   # C_3
 206 1 3  -0.059698  15.162836  14.166733  10.350200   # C_3
 207 1 4   0.066060  14.930785  13.050774  10.350200   # H_
 208 1 2  -0.279332  12.777736  14.834321  10.416648   # O_3
 209 1 3   0.213559  14.167768  15.162629  10.350200   # C_3
 210 1 3  -0.201745  14.593782  16.456611  10.350200   # C_3
 211 1 3   0.082091  15.887764  16.882832  10.350200   # C_3
 212 1 3   0.003578  16.883867  15.887764  10.350200   # C_3
 213 1 4   0.097703  17.999826  16.119815  10.350200   # H_
 214 1 4   0.085592  16.119815  17.998791  10.350200   # H_
 215 1 2  -0.589730  13.878790  18.727652  10.350200   # O_3
 216 1 3   0.571505  13.529781  17.520612  10.350200   # C_3
 217 1 2  -0.638784  12.322741  17.171603  10.350200   # O_3
 218 1 4   0.151642  12.554379  14.689004  11.377975   # H_
 219 1 3   0.534168   7.170619   3.179581  10.350200   # C_3
 220 1 2  -0.651306   8.377659   3.528590  10.350200   # O_3
 221 1 2  -0.660117   6.821610   1.972541  10.350200   # O_3
 222 1 3  -0.098874   6.106618   4.243582  10.350200   # C_3
 223 1 3  -0.062436   4.812636   3.816533  10.350200   # C_3
 224 1 4   0.055183   4.580585   2.700574  10.350200   # H_
 225 1 2  -0.292650   2.427536   4.484121  10.416648   # O_3
 226 1 3   0.209474   3.817568   4.812636  10.350200   # C_3
 227 1 3  -0.219268   4.243582   6.106618  10.350200   # C_3
 228 1 3   0.064798   5.537564   6.532632  10.350200   # C_3
 229 1 3  -0.012968   6.533667   5.537564  10.350200   # C_3
 230 1 4   0.049811   7.649626   5.769615  10.350200   # H_
 231 1 4   0.037098   5.769615   7.648591  10.350200   # H_
 232 1 2  -0.659765   3.528590   8.377452  10.350200   # O_3
 233 1 3   0.577146   3.179581   7.170619  10.350200   # C_3
 234 1 2  -0.646067   1.972541   6.821610  10.350200   # O_3
 235 1 4   0.141202   2.203558   4.335699  11.377147   # H_
 236 1 3   0.530982   7.170619  13.529781   0.000000   # C_3
 237 1 2  -0.691882   8.377659  13.878790   0.000000   # O_3
 238 1 2  -0.696479   6.821610  12.322741   0.000000   # O_3
 239 1 3  -0.114459   6.106618  14.593782   0.000000   # C_3
 240 1 3  -0.070844   4.812636  14.166733   0.000000   # C_3
 241 1 4   0.041737   4.580585  13.050774   0.000000   # H_
 242 1 2  -0.321538   2.427536  14.833907   0.066241   # O_3
 243 1 3   0.199464   3.817568  15.162629   0.000000   # C_3
 244 1 3  -0.224037   4.243582  16.456611   0.000000   # C_3
 245 1 3   0.058529   5.537564  16.882832   0.000000   # C_3
 246 1 3  -0.014115   6.533667  15.887764   0.000000   # C_3
 247 1 4   0.041905   7.649626  16.119815   0.000000   # H_
 248 1 4   0.052421   5.769615  17.998791   0.000000   # H_
 249 1 2  -0.711938   3.528590  18.727652   0.000000   # O_3
 250 1 3   0.563204   3.179581  17.520612   0.000000   # C_3
 251 1 2  -0.765720   1.972541  17.171603   0.000000   # O_3
 252 1 4   0.146653   2.199832  14.678240   1.024670   # H_
 253 1 3   0.514973  17.520819  17.520819   0.000000   # C_3
 254 1 2  -0.620686  18.727859  17.171810   0.000000   # O_3
 255 1 2  -0.616086  17.171810  18.727859   0.000000   # O_3
 256 1 3  -0.076188  16.456818  16.456818   0.000000   # C_3
 257 1 3  -0.069155  15.162836  16.883867   0.000000   # C_3
 258 1 4   0.091911  14.930785  17.999826   0.000000   # H_
 259 1 2  -0.300603  12.775873  16.185229   0.074728   # O_3
 260 1 3   0.217271  14.167768  15.887971   0.000000   # C_3
 261 1 3  -0.246102  14.593782  14.593989   0.000000   # C_3
 262 1 3   0.070962  15.887764  14.167768   0.000000   # C_3
 263 1 3  -0.024574  16.883867  15.162836   0.000000   # C_3
 264 1 4   0.068724  17.999826  14.930785   0.000000   # H_
 265 1 4   0.020791  16.119815  13.051809   0.000000   # H_
 266 1 2  -0.782526  13.878790  12.322948   0.000000   # O_3
 267 1 3   0.569383  13.529781  13.529988   0.000000   # C_3
 268 1 2  -0.768700  12.322741  13.878997   0.000000   # O_3
 269 1 4   0.167068  12.573009  16.013829   1.035641   # H_
 270 1 3   0.519790  17.520819   7.170619  10.350200   # C_3
 271 1 2  -0.575786  18.727859   6.821610  10.350200   # O_3
 272 1 2  -0.639056  17.171810   8.377659  10.350200   # O_3
 273 1 3  -0.075765  16.456818   6.106618  10.350200   # C_3
 274 1 3  -0.064183  15.162836   6.533667  10.350200   # C_3
 275 1 4   0.075538  14.930785   7.649626  10.350200   # H_
 276 1 2  -0.278752  12.780220   5.842481  10.424721   # O_3
 277 1 3   0.218010  14.167768   5.537564  10.350200   # C_3
 278 1 3  -0.229922  14.593782   4.243582  10.350200   # C_3
 279 1 3   0.077435  15.887764   3.817568  10.350200   # C_3
 280 1 3  -0.013465  16.883867   4.812636  10.350200   # C_3
 281 1 4   0.083359  17.999826   4.580585  10.350200   # H_
 282 1 4   0.034654  16.119815   2.701609  10.350200   # H_
 283 1 2  -0.755897  13.878790   1.972748  10.350200   # O_3
 284 1 3   0.572396  13.529781   3.179581  10.350200   # C_3
 285 1 2  -0.734506  12.322741   3.528590  10.350200   # O_3
 286 1 4   0.147021  12.572802   5.768373  11.398675   # H_
 287 1 3   0.513783   7.170619  17.520819  10.350200   # C_3
 288 1 2  -0.721697   8.377659  17.171810  10.350200   # O_3
 289 1 2  -0.659446   6.821610  18.727859  10.350200   # O_3
 290 1 3  -0.079977   6.106618  16.456818  10.350200   # C_3
 291 1 3  -0.060265   4.812636  16.883867  10.350200   # C_3
 292 1 4   0.105116   4.580585  17.999826  10.350200   # H_
 293 1 2  -0.273540   2.431262  16.196407  10.424721   # O_3
 294 1 3   0.224883   3.817568  15.887971  10.350200   # C_3
 295 1 3  -0.231313   4.243582  14.593989  10.350200   # C_3
 296 1 3   0.071003   5.537564  14.167768  10.350200   # C_3
 297 1 3  -0.020292   6.533667  15.162836  10.350200   # C_3
 298 1 4   0.052629   7.649626  14.930785  10.350200   # H_
 299 1 4   0.029167   5.769615  13.051809  10.350200   # H_
 300 1 2  -0.749333   3.528590  12.322948  10.350200   # O_3
 301 1 3   0.575408   3.179581  13.529988  10.350200   # C_3
 302 1 2  -0.750400   1.972541  13.878997  10.350200   # O_3
 303 1 4   0.150000   2.228191  16.159353  11.401987   # H_
 304 1 3   0.519999   7.170619   7.170619   0.000000   # C_3
 305 1 2  -0.781057   8.377659   6.821610   0.000000   # O_3
 306 1 2  -0.776773   6.821610   8.377659   0.000000   # O_3
 307 1 3  -0.115245   6.106618   6.106618   0.000000   # C_3
 308 1 3  -0.075321   4.812636   6.533667   0.000000   # C_3
 309 1 4   0.049793   4.580585   7.649626   0.000000   # H_
 310 1 2  -0.323187   2.427743   5.837306   0.074935   # O_3
 311 1 3   0.204137   3.817568   5.537564   0.000000   # C_3
 312 1 3  -0.244657   4.243582   4.243582   0.000000   # C_3
 313 1 3   0.055421   5.537564   3.817568   0.000000   # C_3
 314 1 3  -0.030373   6.533667   4.812636   0.000000   # C_3
 315 1 4   0.026709   7.649626   4.580585   0.000000   # H_
 316 1 4   0.003131   5.769615   2.701609   0.000000   # H_
 317 1 2  -0.716728   3.528590   1.972748   0.000000   # O_3
 318 1 3   0.581954   3.179581   3.179581   0.000000   # C_3
 319 1 2  -0.700718   1.972541   3.528590   0.000000   # O_3
 320 1 4   0.150174   2.219083   5.700062   1.040195   # H_
 321 1 3   0.522021   0.000000  17.520819   3.179581   # C_3
 322 1 2  -0.621659   0.000000  18.727859   3.528590   # O_3
 323 1 2  -0.697701   0.000000  17.171810   1.972541   # O_3
 324 1 3  -0.097817   0.000000  16.456818   4.243582   # C_3
 325 1 3  -0.076924   0.000000  15.162836   3.816533   # C_3
 326 1 4   0.040166   0.000000  14.930785   2.700574   # H_
 327 1 2  -0.320843   0.066241  12.777736   4.483914   # O_3
 328 1 3   0.203878   0.000000  14.167768   4.812636   # C_3
 329 1 3  -0.242449   0.000000  14.593782   6.106618   # C_3
 330 1 3   0.064889   0.000000  15.887764   6.532632   # C_3
 331 1 3  -0.021434   0.000000  16.883867   5.537564   # C_3
 332 1 4   0.064234   0.000000  17.999826   5.769615   # H_
 333 1 4   0.026923   0.000000  16.119815   7.648591   # H_
 334 1 2  -0.792510   0.000000  13.878790   8.377452   # O_3
 335 1 3   0.572377   0.000000  13.529781   7.170619   # C_3
 336 1 2  -0.771890   0.000000  12.322741   6.821610   # O_3
 337 1 4   0.148939   1.025498  12.551274   4.331559   # H_
 338 1 3   0.527677   0.000000   7.170619  13.529781   # C_3
 339 1 2  -0.696104   0.000000   8.377659  13.878790   # O_3
 340 1 2  -0.689173   0.000000   6.821610  12.322741   # O_3
 341 1 3  -0.114164   0.000000   6.106618  14.593782   # C_3
 342 1 3  -0.072872   0.000000   4.812636  14.166733   # C_3
 343 1 4   0.040710   0.000000   4.580585  13.050774   # H_
 344 1 2  -0.324456   0.066448   2.427536  14.834114   # O_3
 345 1 3   0.200104   0.000000   3.817568  15.162629   # C_3
 346 1 3  -0.227481   0.000000   4.243582  16.456611   # C_3
 347 1 3   0.058549   0.000000   5.537564  16.882832   # C_3
 348 1 3  -0.016208   0.000000   6.533667  15.887764   # C_3
 349 1 4   0.040010   0.000000   7.649626  16.119815   # H_
 350 1 4   0.048689   0.000000   5.769615  17.998791   # H_
 351 1 2  -0.719195   0.000000   3.528590  18.727652   # O_3
 352 1 3   0.567005   0.000000   3.179581  17.520612   # C_3
 353 1 2  -0.778580   0.000000   1.972541  17.171603   # O_3
 354 1 4   0.147080   1.025498   2.200453  14.682173   # H_
 355 1 3   0.519516  10.350200  17.520819  13.529781   # C_3
 356 1 2  -0.670333  10.350200  18.727859  13.878790   # O_3
 357 1 2  -0.721302  10.350200  17.171810  12.322741   # O_3
 358 1 3  -0.084913  10.350200  16.456818  14.593782   # C_3
 359 1 3  -0.060513  10.350200  15.162836  14.166733   # C_3
 360 1 4   0.065680  10.350200  14.930785  13.050774   # H_
 361 1 2  -0.278648  10.416648  12.777736  14.834321   # O_3
 362 1 3   0.212178  10.350200  14.167768  15.162629   # C_3
 363 1 3  -0.206578  10.350200  14.593782  16.456611   # C_3
 364 1 3   0.079981  10.350200  15.887764  16.882832   # C_3
 365 1 3   0.002044  10.350200  16.883867  15.887764   # C_3
 366 1 4   0.096324  10.350200  17.999826  16.119815   # H_
 367 1 4   0.082354  10.350200  16.119815  17.998791   # H_
 368 1 2  -0.670848  10.350200  13.878790  18.727652   # O_3
 369 1 3   0.562589  10.350200  13.529781  17.520612   # C_3
 370 1 2  -0.716435  10.350200  12.322741  17.171603   # O_3
 371 1 4   0.147229  11.377354  12.553344  14.686934   # H_
 372 1 3   0.524601  10.350200   7.170619   3.179581   # C_3
 373 1 2  -0.734964  10.350200   8.377659   3.528590   # O_3
 374 1 2  -0.744072  10.350200   6.821610   1.972541   # O_3
 375 1 3  -0.102683  10.350200   6.106618   4.243582   # C_3
 376 1 3  -0.063736  10.350200   4.812636   3.816533   # C_3
 377 1 4   0.055056  10.350200   4.580585   2.700574   # H_
 378 1 2  -0.292843  10.416441   2.427536   4.483914   # O_3
 379 1 3   0.209245  10.350200   3.817568   4.812636   # C_3
 380 1 3  -0.219594  10.350200   4.243582   6.106618   # C_3
 381 1 3   0.064588  10.350200   5.537564   6.532632   # C_3
 382 1 3  -0.014089  10.350200   6.533667   5.537564   # C_3
 383 1 4   0.049367  10.350200   7.649626   5.769615   # H_
 384 1 4   0.037053  10.350200   5.769615   7.648591   # H_
 385 1 2  -0.659772  10.350200   3.528590   8.377452   # O_3
 386 1 3   0.577152  10.350200   3.179581   7.170619   # C_3
 387 1 2  -0.646074  10.350200   1.972541   6.821610   # O_3
 388 1 4   0.141582  11.376112   2.202109   4.332180   # H_
 389 1 3   0.509516   0.000000  17.520819  17.520819   # C_3
 390 1 2  -0.710062   0.000000  18.727859  17.171810   # O_3
 391 1 2  -0.699964   0.000000  17.171810  18.727859   # O_3
 392 1 3  -0.083097   0.000000  16.456818  16.456818   # C_3
 393 1 3  -0.072318   0.000000  15.162836  16.883867   # C_3
 394 1 4   0.086997   0.000000  14.930785  17.999826   # H_
 395 1 2  -0.300052   0.074521  12.780220  16.192681   # O_3
 396 1 3   0.216553   0.000000  14.167768  15.887971   # C_3
 397 1 3  -0.248300   0.000000  14.593782  14.593989   # C_3
 398 1 3   0.069412   0.000000  15.887764  14.167768   # C_3
 399 1 3  -0.026331   0.000000  16.883867  15.162836   # C_3
 400 1 4   0.066208   0.000000  17.999826  14.930785   # H_
 401 1 4   0.019327   0.000000  16.119815  13.051809   # H_
 402 1 2  -0.804097   0.000000  13.878790  12.322948   # O_3
 403 1 3   0.572263   0.000000  13.529781  13.529988   # C_3
 404 1 2  -0.779138   0.000000  12.322741  13.878997   # O_3
 405 1 4   0.156652   1.048475  12.572802  16.118987   # H_
 406 1 3   0.525777   0.000000   7.170619   7.170619   # C_3
 407 1 2  -0.699866   0.000000   8.377659   6.821610   # O_3
 408 1 2  -0.685811   0.000000   6.821610   8.377659   # O_3
 409 1 3  -0.111655   0.000000   6.106618   6.106618   # C_3
 410 1 3  -0.075432   0.000000   4.812636   6.533667   # C_3
 411 1 4   0.049063   0.000000   4.580585   7.649626   # H_
 412 1 2  -0.325511   0.074935   2.427743   5.837306   # O_3
 413 1 3   0.203394   0.000000   3.817568   5.537564   # C_3
 414 1 3  -0.244786   0.000000   4.243582   4.243582   # C_3
 415 1 3   0.054578   0.000000   5.537564   3.817568   # C_3
 416 1 3  -0.030391   0.000000   6.533667   4.812636   # C_3
 417 1 4   0.025932   0.000000   7.649626   4.580585   # H_
 418 1 4   0.002238   0.000000   5.769615   2.701609   # H_
 419 1 2  -0.719375   0.000000   3.528590   1.972748   # O_3
 420 1 3   0.578565   0.000000   3.179581   3.179581   # C_3
 421 1 2  -0.694436   0.000000   1.972541   3.528590   # O_3
 422 1 4   0.151276   1.040195   2.219083   5.700476   # H_
 423 1 3   0.520050  10.350200  17.520819   7.170619   # C_3
 424 1 2  -0.575455  10.350200  18.727859   6.821610   # O_3
 425 1 2  -0.638977  10.350200  17.171810   8.377659   # O_3
 426 1 3  -0.075395  10.350200  16.456818   6.106618   # C_3
 427 1 3  -0.063386  10.350200  15.162836   6.533667   # C_3
 428 1 4   0.075732  10.350200  14.930785   7.649626   # H_
 429 1 2  -0.281336  10.425135  12.777736   5.837099   # O_3
 430 1 3   0.218599  10.350200  14.167768   5.537564   # C_3
 431 1 3  -0.226338  10.350200  14.593782   4.243582   # C_3
 432 1 3   0.079041  10.350200  15.887764   3.817568   # C_3
 433 1 3  -0.012511  10.350200  16.883867   4.812636   # C_3
 434 1 4   0.084196  10.350200  17.999826   4.580585   # H_
 435 1 4   0.035692  10.350200  16.119815   2.701609   # H_
 436 1 2  -0.669784  10.350200  13.878790   1.972748   # O_3
 437 1 3   0.581379  10.350200  13.529781   3.179581   # C_3
 438 1 2  -0.650373  10.350200  12.322741   3.528590   # O_3
 439 1 4   0.154114  11.390188  12.569283   5.699234   # H_
 440 1 3   0.523546  10.350200   7.170619  17.520819   # C_3
 441 1 2  -0.643529  10.350200   8.377659  17.171810   # O_3
 442 1 2  -0.585960  10.350200   6.821610  18.727859   # O_3
 443 1 3  -0.077438  10.350200   6.106618  16.456818   # C_3
 444 1 3  -0.058865  10.350200   4.812636  16.883867   # C_3
 445 1 4   0.103533  10.350200   4.580585  17.999826   # H_
 446 1 2  -0.274341  10.424928   2.429813  16.192060   # O_3
 447 1 3   0.224532  10.350200   3.817568  15.887971   # C_3
 448 1 3  -0.231027  10.350200   4.243582  14.593989   # C_3
 449 1 3   0.071252  10.350200   5.537564  14.167768   # C_3
 450 1 3  -0.018676  10.350200   6.533667  15.162836   # C_3
 451 1 4   0.053138  10.350200   7.649626  14.930785   # H_
 452 1 4   0.029427  10.350200   5.769615  13.051809   # H_
 453 1 2  -0.749499  10.350200   3.528590  12.322948   # O_3
 454 1 3   0.575401  10.350200   3.179581  13.529988   # C_3
 455 1 2  -0.750986  10.350200   1.972541  13.878997   # O_3
 456 1 4   0.150314  11.398054   2.222188  16.112984   # H_
