 (written by mofun)

1256 atoms
0 bonds
0 angles
0 dihedrals
0 impropers

5 atom types
   0.000000  26.896000 xlo xhi
   0.000000  26.896000 ylo yhi
   0.000000  26.896000 zlo zhi

Masses

 1 91.2240   # Zr3+4
 2 15.9994   # O_3
 3 12.0107   # C_3
 4 1.0079   # H_
 5 14.0067   # N_3

Pair Coeffs

 1   0.069000   2.783168 # Zr3+4
 2   0.060000   3.118146 # O_3
 3   0.105000   3.430851 # C_3
 4   0.044000   2.571134 # H_
 5   0.069000   3.260689 # N_3

Atoms

 1 1 1   3.189650   2.475508   0.000000   0.000000   # Zr3+4
 2 1 1   3.189050  24.420492   0.000000   0.000000   # Zr3+4
 3 1 1   3.189790   0.000000   2.475508   0.000000   # Zr3+4
 4 1 1   3.189180   0.000000  24.420492   0.000000   # Zr3+4
 5 1 1   3.189530   0.000000   0.000000   2.475508   # Zr3+4
 6 1 1   3.188940   0.000000   0.000000  24.420492   # Zr3+4
 7 1 1   3.214800   2.475508  13.448000  13.448000   # Zr3+4
 8 1 1   3.213720  24.420492  13.448000  13.448000   # Zr3+4
 9 1 1   3.202010   0.000000  15.923508  13.448000   # Zr3+4
 10 1 1   3.201980   0.000000  10.972492  13.448000   # Zr3+4
 11 1 1   3.202040   0.000000  13.448000  15.923508   # Zr3+4
 12 1 1   3.202010   0.000000  13.448000  10.972492   # Zr3+4
 13 1 1   3.201880  15.923508   0.000000  13.448000   # Zr3+4
 14 1 1   3.201840  10.972492   0.000000  13.448000   # Zr3+4
 15 1 1   3.214790  13.448000   2.475508  13.448000   # Zr3+4
 16 1 1   3.213700  13.448000  24.420492  13.448000   # Zr3+4
 17 1 1   3.201860  13.448000   0.000000  15.923508   # Zr3+4
 18 1 1   3.201820  13.448000   0.000000  10.972492   # Zr3+4
 19 1 1   3.202150  15.923508  13.448000   0.000000   # Zr3+4
 20 1 1   3.202120  10.972492  13.448000   0.000000   # Zr3+4
 21 1 1   3.202150  13.448000  15.923508   0.000000   # Zr3+4
 22 1 1   3.202120  13.448000  10.972492   0.000000   # Zr3+4
 23 1 1   3.214790  13.448000  13.448000   2.475508   # Zr3+4
 24 1 1   3.213720  13.448000  13.448000  24.420492   # Zr3+4
 25 1 2  -1.323640   1.221078   1.221078   1.221078   # O_3
 26 1 2  -1.145920  25.674922  25.674922   1.221078   # O_3
 27 1 2  -1.147750  25.674922   1.221078  25.674922   # O_3
 28 1 2  -1.147000   1.221078  25.674922  25.674922   # O_3
 29 1 2  -1.234220   1.221078   1.221078  25.674922   # O_3
 30 1 2  -1.064060  25.674922  25.674922  25.674922   # O_3
 31 1 2  -1.232240   1.221078  25.674922   1.221078   # O_3
 32 1 2  -1.233520  25.674922   1.221078   1.221078   # O_3
 33 1 2  -1.272000   1.221078  14.669078  14.669078   # O_3
 34 1 2  -1.182870  25.674922  12.226922  14.669078   # O_3
 35 1 2  -1.182860  25.674922  14.669078  12.226922   # O_3
 36 1 2  -1.272010   1.221078  12.226922  12.226922   # O_3
 37 1 2  -1.272060   1.221078  14.669078  12.226922   # O_3
 38 1 2  -1.182450  25.674922  12.226922  12.226922   # O_3
 39 1 2  -1.272050   1.221078  12.226922  14.669078   # O_3
 40 1 2  -1.182970  25.674922  14.669078  14.669078   # O_3
 41 1 2  -1.272340  14.669078   1.221078  14.669078   # O_3
 42 1 2  -1.182100  12.226922  25.674922  14.669078   # O_3
 43 1 2  -1.272360  12.226922   1.221078  12.226922   # O_3
 44 1 2  -1.182090  14.669078  25.674922  12.226922   # O_3
 45 1 2  -1.272360  14.669078   1.221078  12.226922   # O_3
 46 1 2  -1.181800  12.226922  25.674922  12.226922   # O_3
 47 1 2  -1.182330  14.669078  25.674922  14.669078   # O_3
 48 1 2  -1.272350  12.226922   1.221078  14.669078   # O_3
 49 1 2  -1.271800  14.669078  14.669078   1.221078   # O_3
 50 1 2  -1.271800  12.226922  12.226922   1.221078   # O_3
 51 1 2  -1.183530  12.226922  14.669078  25.674922   # O_3
 52 1 2  -1.183520  14.669078  12.226922  25.674922   # O_3
 53 1 2  -1.183620  14.669078  14.669078  25.674922   # O_3
 54 1 2  -1.183100  12.226922  12.226922  25.674922   # O_3
 55 1 2  -1.271810  14.669078  12.226922   1.221078   # O_3
 56 1 2  -1.271810  12.226922  14.669078   1.221078   # O_3
 57 1 2  -0.678693   3.566410   0.000000   1.933822   # O_3
 58 1 3   0.485670   3.152211   0.000000   3.152211   # C_3
 59 1 2  -0.678953   1.933822   0.000000   3.566410   # O_3
 60 1 3  -0.161512   4.209224   0.000000   4.209224   # C_3
 61 1 3   0.063967   5.535197   0.000000   3.891851   # C_3
 62 1 3   0.004578   3.891851   0.000000   5.535197   # C_3
 63 1 3  -0.131466   6.508832   0.000000   4.827832   # C_3
 64 1 4  -0.004070   5.779950   0.000000   2.996214   # H_
 65 1 3  -0.004685   4.827832   0.000000   6.508832   # C_3
 66 1 4   0.019857   2.996214   0.000000   5.779950   # H_
 67 1 3   0.013058   6.204907   0.000000   6.204907   # C_3
 68 1 3   0.009521   7.243093   0.000000   7.243093   # C_3
 69 1 4   0.064477   7.399090   0.000000   4.558872   # H_
 70 1 3  -0.003563   8.620168   0.000000   6.939168   # C_3
 71 1 5  -0.161989   4.249030   0.158955   7.910383   # N_3
 72 1 3  -0.126629   6.939168   0.000000   8.620168   # C_3
 73 1 3  -0.001100   9.556149   0.000000   7.912803   # C_3
 74 1 5  -0.161614   9.215108   0.047875   5.492701   # N_3
 75 1 3   0.054803   7.912803   0.000000   9.556149   # C_3
 76 1 4   0.057152   6.048910   0.000000   8.889128   # H_
 77 1 3  -0.155539   9.238776   0.000000   9.238776   # C_3
 78 1 3   0.477562  10.295789   0.000000  10.295789   # C_3
 79 1 4   0.024785  10.451786   0.000000   7.668050   # H_
 80 1 4  -0.001764   7.668050   0.000000  10.451786   # H_
 81 1 2  -0.671740  11.514178   0.000000   9.881590   # O_3
 82 1 2  -0.671651   9.881590   0.000000  11.514178   # O_3
 83 1 3  -0.000081   9.721021   1.331621   5.060482   # C_3
 84 1 3   0.044700  10.119889  25.846787   5.054027   # C_3
 85 1 3  -0.011574   3.846128   1.486004   8.316243   # C_3
 86 1 3   0.050794   3.401537  25.994984   8.492412   # C_3
 87 1 4   0.044224   9.673953  25.328232   4.173183   # H_
 88 1 4   0.054289  10.325912  25.160401   5.861983   # H_
 89 1 3   0.052297  11.480020  26.508429   4.676945   # C_3
 90 1 4   0.012534   9.291223   1.644690   4.112129   # H_
 91 1 3  -0.190764  11.268617   1.101660   4.964195   # C_3
 92 1 4   0.034110   9.559107   2.155176   5.815453   # H_
 93 1 4   0.050605  11.722084   1.359862   5.954774   # H_
 94 1 4   0.036063  11.720201   1.728606   4.162694   # H_
 95 1 4   0.036426  11.704332  26.350818   3.587388   # H_
 96 1 4   0.045864  12.406856  26.125968   5.251444   # H_
 97 1 4   0.037588   3.990828  25.177077   8.902845   # H_
 98 1 4   0.048216   2.667007  25.577558   7.811405   # H_
 99 1 3   0.037316   2.675345  26.712569   9.644637   # C_3
 100 1 4   0.052442   3.300408  26.712838  10.580080   # H_
 101 1 4   0.018968   1.653835  26.282233   9.892349   # H_
 102 1 3  -0.184099   2.582823   1.313870   9.222907   # C_3
 103 1 4   0.035833   3.653015   2.056468   7.451806   # H_
 104 1 4   0.026094   4.691469   1.953456   8.852280   # H_
 105 1 4   0.031081   2.663511   2.015048  10.097027   # H_
 106 1 4   0.024741   1.661904   1.590092   8.656209   # H_
 107 1 2  -0.673362  23.329590   0.000000   1.933822   # O_3
 108 1 3   0.480714  23.743789   0.000000   3.152211   # C_3
 109 1 2  -0.612613  24.962178   0.000000   3.566410   # O_3
 110 1 3  -0.156611  22.686776   0.000000   4.209224   # C_3
 111 1 3   0.063949  21.360803   0.000000   3.891851   # C_3
 112 1 3   0.033021  23.004149   0.000000   5.535197   # C_3
 113 1 3  -0.128209  20.387168   0.000000   4.827832   # C_3
 114 1 4  -0.003987  21.116050   0.000000   2.996214   # H_
 115 1 3  -0.071614  22.068168   0.000000   6.508832   # C_3
 116 1 4   0.031858  23.899786   0.000000   5.779950   # H_
 117 1 3   0.017814  20.691093   0.000000   6.204907   # C_3
 118 1 3   0.028666  19.652907   0.000000   7.243093   # C_3
 119 1 4   0.047522  19.496910   0.000000   4.558872   # H_
 120 1 3  -0.085682  18.275832   0.000000   6.939168   # C_3
 121 1 5   0.021061  22.646970  26.736776   7.910383   # N_3
 122 1 3  -0.144569  19.956832   0.000000   8.620168   # C_3
 123 1 3   0.046670  17.339851   0.000000   7.912803   # C_3
 124 1 5   0.016914  17.680892  26.848125   5.492701   # N_3
 125 1 3   0.077885  18.983197   0.000000   9.556149   # C_3
 126 1 4   0.056989  20.847090   0.000000   8.889128   # H_
 127 1 3  -0.181034  17.657224   0.000000   9.238776   # C_3
 128 1 3   0.486670  16.600211   0.000000  10.295789   # C_3
 129 1 4   0.005374  16.444214   0.000000   7.668050   # H_
 130 1 4  -0.004784  19.227950   0.000000  10.451786   # H_
 131 1 2  -0.673809  15.381822   0.000000   9.881590   # O_3
 132 1 2  -0.672822  17.014410   0.000000  11.514178   # O_3
 133 1 3  -0.035724  17.174979  25.564379   5.060482   # C_3
 134 1 3  -0.104805  16.776111   1.049213   5.054027   # C_3
 135 1 3  -0.051468  23.049872  25.409996   8.316243   # C_3
 136 1 3  -0.106153  23.494463   0.900747   8.492412   # C_3
 137 1 4   0.033408  17.222047   1.567768   4.173183   # H_
 138 1 4   0.053647  16.570088   1.735599   5.861983   # H_
 139 1 3  -0.159215  15.415980   0.387571   4.676945   # C_3
 140 1 4   0.059556  17.604777  25.251310   4.112129   # H_
 141 1 3   0.052643  15.627383  25.794340   4.964195   # C_3
 142 1 4   0.066231  17.336893  24.740824   5.815453   # H_
 143 1 4   0.050813  15.173916  25.536138   5.954774   # H_
 144 1 4   0.020092  15.175799  25.167394   4.162694   # H_
 145 1 4   0.008376  15.191668   0.545182   3.587388   # H_
 146 1 4   0.021512  14.489144   0.770032   5.251444   # H_
 147 1 4   0.052339  22.905172   1.718923   8.902845   # H_
 148 1 4   0.065610  24.228993   1.318442   7.811405   # H_
 149 1 3  -0.150955  24.220655   0.183431   9.644637   # C_3
 150 1 4   0.020531  23.595592   0.183162  10.580080   # H_
 151 1 4   0.048481  25.242165   0.613767   9.892349   # H_
 152 1 3   0.056513  24.313177  25.582130   9.222907   # C_3
 153 1 4   0.089214  23.242985  24.839532   7.451806   # H_
 154 1 4   0.075048  22.204531  24.942544   8.852280   # H_
 155 1 4   0.035555  24.232489  24.880952  10.097027   # H_
 156 1 4   0.071226  25.234096  25.305908   8.656209   # H_
 157 1 2  -0.605205  23.329590   0.000000  24.962178   # O_3
 158 1 3   0.460082  23.743789   0.000000  23.743789   # C_3
 159 1 2  -0.604587  24.962178   0.000000  23.329590   # O_3
 160 1 3  -0.104698  22.686776   0.000000  22.686776   # C_3
 161 1 3   0.027836  21.360803   0.000000  23.004149   # C_3
 162 1 3  -0.026777  23.004149   0.000000  21.360803   # C_3
 163 1 3  -0.093874  20.387168   0.000000  22.068168   # C_3
 164 1 4   0.035595  21.116050   0.000000  23.899786   # H_
 165 1 3   0.021219  22.068168   0.000000  20.387168   # C_3
 166 1 4   0.056181  23.899786   0.000000  21.116050   # H_
 167 1 3  -0.003101  20.691093   0.000000  20.691093   # C_3
 168 1 3   0.019926  19.652907   0.000000  19.652907   # C_3
 169 1 4   0.058640  19.496910   0.000000  22.337128   # H_
 170 1 3  -0.006107  18.275832   0.000000  19.956832   # C_3
 171 1 5  -0.160769  22.646970   0.158955  18.985617   # N_3
 172 1 3  -0.131969  19.956832   0.000000  18.275832   # C_3
 173 1 3   0.002293  17.339851   0.000000  18.983197   # C_3
 174 1 5  -0.158345  17.680892   0.047875  21.403299   # N_3
 175 1 3   0.059696  18.983197   0.000000  17.339851   # C_3
 176 1 4   0.060017  20.847090   0.000000  18.006872   # H_
 177 1 3  -0.157990  17.657224   0.000000  17.657224   # C_3
 178 1 3   0.478588  16.600211   0.000000  16.600211   # C_3
 179 1 4   0.024025  16.444214   0.000000  19.227950   # H_
 180 1 4  -0.002849  19.227950   0.000000  16.444214   # H_
 181 1 2  -0.671745  15.381822   0.000000  17.014410   # O_3
 182 1 2  -0.671653  17.014410   0.000000  15.381822   # O_3
 183 1 3   0.000277  17.174979   1.331621  21.835518   # C_3
 184 1 3   0.044598  16.776111  25.846787  21.841973   # C_3
 185 1 3  -0.011460  23.049872   1.486004  18.579757   # C_3
 186 1 3   0.046517  23.494463  25.994984  18.403588   # C_3
 187 1 4   0.050272  17.222047  25.328232  22.722817   # H_
 188 1 4   0.055194  16.570088  25.160401  21.034017   # H_
 189 1 3   0.048127  15.415980  26.508429  22.219055   # C_3
 190 1 4   0.019230  17.604777   1.644690  22.783871   # H_
 191 1 3  -0.186272  15.627383   1.101660  21.931805   # C_3
 192 1 4   0.036557  17.336893   2.155176  21.080278   # H_
 193 1 4   0.050374  15.173916   1.359862  20.941226   # H_
 194 1 4   0.045693  15.175799   1.728606  22.733306   # H_
 195 1 4   0.052565  15.191668  26.350818  23.308612   # H_
 196 1 4   0.048176  14.489144  26.125968  21.644556   # H_
 197 1 4   0.045228  22.905172  25.177077  17.993155   # H_
 198 1 4   0.078582  24.228993  25.577558  19.084595   # H_
 199 1 3   0.041145  24.220655  26.712569  17.251363   # C_3
 200 1 4   0.060275  23.595592  26.712838  16.315920   # H_
 201 1 4   0.069700  25.242165  26.282233  17.003382   # H_
 202 1 3  -0.178086  24.313177   1.313870  17.673093   # C_3
 203 1 4   0.051407  23.242985   2.056468  19.444194   # H_
 204 1 4   0.028979  22.204531   1.953456  18.043720   # H_
 205 1 4   0.049147  24.232489   2.015048  16.798973   # H_
 206 1 4   0.074559  25.234096   1.590092  18.239791   # H_
 207 1 2  -0.613535   3.566410   0.000000  24.962178   # O_3
 208 1 3   0.480931   3.152211   0.000000  23.743789   # C_3
 209 1 2  -0.673687   1.933822   0.000000  23.329590   # O_3
 210 1 3  -0.157843   4.209224   0.000000  22.686776   # C_3
 211 1 3   0.061288   5.535197   0.000000  23.004149   # C_3
 212 1 3   0.037763   3.891851   0.000000  21.360803   # C_3
 213 1 3  -0.122876   6.508832   0.000000  22.068168   # C_3
 214 1 4   0.021136   5.779950   0.000000  23.899786   # H_
 215 1 3  -0.078140   4.827832   0.000000  20.387168   # C_3
 216 1 4   0.007193   2.996214   0.000000  21.116050   # H_
 217 1 3   0.018541   6.204907   0.000000  20.691093   # C_3
 218 1 3   0.028221   7.243093   0.000000  19.652907   # C_3
 219 1 4   0.051423   7.399090   0.000000  22.337128   # H_
 220 1 3  -0.084640   8.620168   0.000000  19.956832   # C_3
 221 1 5   0.020452   4.249030  26.736776  18.985617   # N_3
 222 1 3  -0.144571   6.939168   0.000000  18.275832   # C_3
 223 1 3   0.046105   9.556149   0.000000  18.983197   # C_3
 224 1 5   0.016886   9.215108  26.848125  21.403299   # N_3
 225 1 3   0.077569   7.912803   0.000000  17.339851   # C_3
 226 1 4   0.056617   6.048910   0.000000  18.006872   # H_
 227 1 3  -0.180740   9.238776   0.000000  17.657224   # C_3
 228 1 3   0.486563  10.295789   0.000000  16.600211   # C_3
 229 1 4   0.005720  10.451786   0.000000  19.227950   # H_
 230 1 4  -0.004997   7.668050   0.000000  16.444214   # H_
 231 1 2  -0.673681  11.514178   0.000000  17.014410   # O_3
 232 1 2  -0.672914   9.881590   0.000000  15.381822   # O_3
 233 1 3  -0.034348   9.721021  25.564379  21.835518   # C_3
 234 1 3  -0.102293  10.119889   1.049213  21.841973   # C_3
 235 1 3  -0.053584   3.846128  25.409996  18.579757   # C_3
 236 1 3  -0.104581   3.401537   0.900747  18.403588   # C_3
 237 1 4   0.038976   9.673953   1.567768  22.722817   # H_
 238 1 4   0.053834  10.325912   1.735599  21.034017   # H_
 239 1 3  -0.159475  11.480020   0.387571  22.219055   # C_3
 240 1 4   0.064292   9.291223  25.251310  22.783871   # H_
 241 1 3   0.052804  11.268617  25.794340  21.931805   # C_3
 242 1 4   0.066783   9.559107  24.740824  21.080278   # H_
 243 1 4   0.050766  11.722084  25.536138  20.941226   # H_
 244 1 4   0.029756  11.720201  25.167394  22.733306   # H_
 245 1 4   0.025369  11.704332   0.545182  23.308612   # H_
 246 1 4   0.024145  12.406856   0.770032  21.644556   # H_
 247 1 4   0.045917   3.990828   1.718923  17.993155   # H_
 248 1 4   0.035117   2.667007   1.318442  19.084595   # H_
 249 1 3  -0.159996   2.675345   0.183431  17.251363   # C_3
 250 1 4   0.011891   3.300408   0.183162  16.315920   # H_
 251 1 4  -0.003404   1.653835   0.613767  17.003382   # H_
 252 1 3   0.056150   2.582823  25.582130  17.673093   # C_3
 253 1 4   0.077993   3.653015  24.839532  19.444194   # H_
 254 1 4   0.074257   4.691469  24.942544  18.043720   # H_
 255 1 4   0.017414   2.663511  24.880952  16.798973   # H_
 256 1 4   0.021805   1.661904  25.305908  18.239791   # H_
 257 1 2  -0.678335   1.933822   3.566410   0.000000   # O_3
 258 1 3   0.484603   3.152211   3.152211   0.000000   # C_3
 259 1 2  -0.677956   3.566410   1.933822   0.000000   # O_3
 260 1 3  -0.158499   4.209224   4.209224   0.000000   # C_3
 261 1 3   0.057788   3.891851   5.535197   0.000000   # C_3
 262 1 3   0.001375   5.535197   3.891851   0.000000   # C_3
 263 1 3  -0.125388   4.827832   6.508832   0.000000   # C_3
 264 1 4  -0.005053   2.996214   5.779950   0.000000   # H_
 265 1 3  -0.002130   6.508832   4.827832   0.000000   # C_3
 266 1 4   0.021285   5.779950   2.996214   0.000000   # H_
 267 1 3   0.008305   6.204907   6.204907   0.000000   # C_3
 268 1 3   0.013050   7.243093   7.243093   0.000000   # C_3
 269 1 4   0.054614   4.558872   7.399090   0.000000   # H_
 270 1 3  -0.008853   6.939168   8.620168   0.000000   # C_3
 271 1 5  -0.161258   7.909576   4.254947   0.160838   # N_3
 272 1 3  -0.129211   8.620168   6.939168   0.000000   # C_3
 273 1 3   0.001843   7.912803   9.556149   0.000000   # C_3
 274 1 5  -0.171920   5.576079   9.172343   0.459115   # N_3
 275 1 3   0.057062   9.556149   7.912803   0.000000   # C_3
 276 1 4   0.058861   8.889128   6.048910   0.000000   # H_
 277 1 3  -0.156517   9.238776   9.238776   0.000000   # C_3
 278 1 3   0.478208  10.295789  10.295789   0.000000   # C_3
 279 1 4   0.024569   7.668050  10.451786   0.000000   # H_
 280 1 4  -0.002043  10.451786   7.668050   0.000000   # H_
 281 1 2  -0.670019   9.881590  11.514178   0.000000   # O_3
 282 1 2  -0.670829  11.514178   9.881590   0.000000   # O_3
 283 1 3  -0.031422   5.341277   9.514460   1.851252   # C_3
 284 1 3   0.210036   4.986518  10.153778  26.460823   # C_3
 285 1 3  -0.010547   8.300375   3.838866   1.484390   # C_3
 286 1 3   0.049467   8.485419   3.420364  25.987453   # C_3
 287 1 4   0.013469   4.149784   9.728821  25.901386   # H_
 288 1 4   0.029810   5.720779  10.598638  25.815050   # H_
 289 1 3  -0.213086   4.502928  11.279644   0.411509   # C_3
 290 1 4   0.028036   4.460702   8.923286   2.132584   # H_
 291 1 3  -0.031447   5.023635  11.020636   1.812252   # C_3
 292 1 4   0.041968   6.218355   9.370028   2.529569   # H_
 293 1 4   0.025205   5.971719  11.653230   2.021772   # H_
 294 1 4   0.022235   4.278616  11.365174   2.525803   # H_
 295 1 4   0.014670   3.383786  11.332630   0.386764   # H_
 296 1 4   0.010083   4.922775  12.277217   0.005110   # H_
 297 1 4   0.038339   8.944534   4.041393  25.211235   # H_
 298 1 4   0.047139   7.780475   2.750923  25.504132   # H_
 299 1 3   0.035752   9.554266   2.575292  26.690784   # C_3
 300 1 4   0.045877  10.563942   3.063723  26.617088   # H_
 301 1 4   0.018947   9.635223   1.510748  26.295143   # H_
 302 1 3  -0.180176   9.198432   2.573678   1.316021   # C_3
 303 1 4   0.035411   7.432441   3.646560   2.047861   # H_
 304 1 4   0.026511   8.837219   4.676408   1.961794   # H_
 305 1 4   0.029442  10.111013   2.700896   1.966636   # H_
 306 1 4   0.024814   8.659974   1.662711   1.683421   # H_
 307 1 2  -0.672516   1.933822  23.329590   0.000000   # O_3
 308 1 3   0.481167   3.152211  23.743789   0.000000   # C_3
 309 1 2  -0.611060   3.566410  24.962178   0.000000   # O_3
 310 1 3  -0.156956   4.209224  22.686776   0.000000   # C_3
 311 1 3   0.066812   3.891851  21.360803   0.000000   # C_3
 312 1 3   0.033134   5.535197  23.004149   0.000000   # C_3
 313 1 3  -0.131971   4.827832  20.387168   0.000000   # C_3
 314 1 4  -0.003676   2.996214  21.116050   0.000000   # H_
 315 1 3  -0.070836   6.508832  22.068168   0.000000   # C_3
 316 1 4   0.032845   5.779950  23.899786   0.000000   # H_
 317 1 3   0.020708   6.204907  20.691093   0.000000   # C_3
 318 1 3   0.024929   7.243093  19.652907   0.000000   # C_3
 319 1 4   0.052778   4.558872  19.496910   0.000000   # H_
 320 1 3  -0.076961   6.939168  18.275832   0.000000   # C_3
 321 1 5   0.018336   7.909576  22.640784  26.735431   # N_3
 322 1 3  -0.141338   8.620168  19.956832   0.000000   # C_3
 323 1 3   0.042793   7.912803  17.339851   0.000000   # C_3
 324 1 5   0.025184   5.576079  17.723926  26.436885   # N_3
 325 1 3   0.074911   9.556149  18.983197   0.000000   # C_3
 326 1 4   0.056194   8.889128  20.847090   0.000000   # H_
 327 1 3  -0.178406   9.238776  17.657224   0.000000   # C_3
 328 1 3   0.485718  10.295789  16.600211   0.000000   # C_3
 329 1 4   0.006502   7.668050  16.444214   0.000000   # H_
 330 1 4  -0.003486  10.451786  19.227950   0.000000   # H_
 331 1 2  -0.672974   9.881590  15.381822   0.000000   # O_3
 332 1 2  -0.671760  11.514178  17.014410   0.000000   # O_3
 333 1 3  -0.007004   5.341277  17.381540  25.044748   # C_3
 334 1 3  -0.262173   4.986518  16.742222   0.435177   # C_3
 335 1 3  -0.052335   8.300375  23.057134  25.411610   # C_3
 336 1 3  -0.102505   8.485419  23.475636   0.908547   # C_3
 337 1 4   0.057315   4.149784  17.167179   0.994614   # H_
 338 1 4   0.071656   5.720779  16.297362   1.080950   # H_
 339 1 3   0.101792   4.502928  15.616356  26.484491   # C_3
 340 1 4   0.054562   4.460702  17.972714  24.763416   # H_
 341 1 3  -0.100199   5.023635  15.875364  25.083748   # C_3
 342 1 4   0.061621   6.218355  17.525972  24.366431   # H_
 343 1 4   0.068209   5.971719  15.242770  24.874497   # H_
 344 1 4   0.047158   4.278616  15.530826  24.370197   # H_
 345 1 4   0.026572   3.383786  15.563370  26.509504   # H_
 346 1 4   0.052105   4.922775  14.618783  26.890890   # H_
 347 1 4   0.049727   8.944534  22.854607   1.684765   # H_
 348 1 4   0.066656   7.780475  24.145077   1.391868   # H_
 349 1 3  -0.149260   9.554266  24.320708   0.205216   # C_3
 350 1 4   0.023767  10.563942  23.832277   0.278912   # H_
 351 1 4   0.051713   9.635223  25.385252   0.600857   # H_
 352 1 3   0.055738   9.198432  24.322322  25.579979   # C_3
 353 1 4   0.088947   7.432441  23.249440  24.848139   # H_
 354 1 4   0.073395   8.837219  22.219592  24.934206   # H_
 355 1 4   0.036300  10.111013  24.195104  24.929364   # H_
 356 1 4   0.068585   8.659974  25.233289  25.212579   # H_
 357 1 2  -0.603869  24.962178  23.329590   0.000000   # O_3
 358 1 3   0.458800  23.743789  23.743789   0.000000   # C_3
 359 1 2  -0.602707  23.329590  24.962178   0.000000   # O_3
 360 1 3  -0.100838  22.686776  22.686776   0.000000   # C_3
 361 1 3   0.021541  23.004149  21.360803   0.000000   # C_3
 362 1 3  -0.030402  21.360803  23.004149   0.000000   # C_3
 363 1 3  -0.087209  22.068168  20.387168   0.000000   # C_3
 364 1 4   0.035724  23.899786  21.116050   0.000000   # H_
 365 1 3   0.024133  20.387168  22.068168   0.000000   # C_3
 366 1 4   0.058096  21.116050  23.899786   0.000000   # H_
 367 1 3  -0.008011  20.691093  20.691093   0.000000   # C_3
 368 1 3   0.023586  19.652907  19.652907   0.000000   # C_3
 369 1 4   0.049250  22.337128  19.496910   0.000000   # H_
 370 1 3  -0.011520  19.956832  18.275832   0.000000   # C_3
 371 1 5  -0.160181  18.986424  22.640784   0.160838   # N_3
 372 1 3  -0.134643  18.275832  19.956832   0.000000   # C_3
 373 1 3   0.005279  18.983197  17.339851   0.000000   # C_3
 374 1 5  -0.167968  21.319921  17.723926   0.459115   # N_3
 375 1 3   0.062022  17.339851  18.983197   0.000000   # C_3
 376 1 4   0.061781  18.006872  20.847090   0.000000   # H_
 377 1 3  -0.159036  17.657224  17.657224   0.000000   # C_3
 378 1 3   0.479244  16.600211  16.600211   0.000000   # C_3
 379 1 4   0.023799  19.227950  16.444214   0.000000   # H_
 380 1 4  -0.003139  16.444214  19.227950   0.000000   # H_
 381 1 2  -0.670034  17.014410  15.381822   0.000000   # O_3
 382 1 2  -0.670833  15.381822  17.014410   0.000000   # O_3
 383 1 3  -0.033850  21.554723  17.381540   1.851252   # C_3
 384 1 3   0.207557  21.909482  16.742222  26.460823   # C_3
 385 1 3  -0.010944  18.595625  23.057134   1.484390   # C_3
 386 1 3   0.046451  18.410581  23.475636  25.987453   # C_3
 387 1 4   0.018966  22.746216  17.167179  25.901386   # H_
 388 1 4   0.030482  21.175221  16.297362  25.815050   # H_
 389 1 3  -0.213425  22.393072  15.616356   0.411509   # C_3
 390 1 4   0.042099  22.435298  17.972714   2.132584   # H_
 391 1 3  -0.026661  21.872365  15.875364   1.812252   # C_3
 392 1 4   0.045944  20.677645  17.525972   2.529569   # H_
 393 1 4   0.024742  20.924281  15.242770   2.021772   # H_
 394 1 4   0.027397  22.617384  15.530826   2.525803   # H_
 395 1 4   0.036666  23.512214  15.563370   0.386764   # H_
 396 1 4   0.014626  21.973225  14.618783   0.005110   # H_
 397 1 4   0.045069  17.951466  22.854607  25.211235   # H_
 398 1 4   0.075653  19.115525  24.145077  25.504132   # H_
 399 1 3   0.037657  17.341734  24.320708  26.690784   # C_3
 400 1 4   0.057915  16.332058  23.832277  26.617088   # H_
 401 1 4   0.075396  17.260777  25.385252  26.295143   # H_
 402 1 3  -0.172615  17.697568  24.322322   1.316021   # C_3
 403 1 4   0.051307  19.463559  23.249440   2.047861   # H_
 404 1 4   0.029574  18.058781  22.219592   1.961794   # H_
 405 1 4   0.047344  16.784987  24.195104   1.966636   # H_
 406 1 4   0.074914  18.236026  25.233289   1.683421   # H_
 407 1 2  -0.611894  24.962178   3.566410   0.000000   # O_3
 408 1 3   0.481541  23.743789   3.152211   0.000000   # C_3
 409 1 2  -0.672811  23.329590   1.933822   0.000000   # O_3
 410 1 3  -0.158064  22.686776   4.209224   0.000000   # C_3
 411 1 3   0.064470  23.004149   5.535197   0.000000   # C_3
 412 1 3   0.038082  21.360803   3.891851   0.000000   # C_3
 413 1 3  -0.126339  22.068168   6.508832   0.000000   # C_3
 414 1 4   0.022214  23.899786   5.779950   0.000000   # H_
 415 1 3  -0.077404  20.387168   4.827832   0.000000   # C_3
 416 1 4   0.007848  21.116050   2.996214   0.000000   # H_
 417 1 3   0.021470  20.691093   6.204907   0.000000   # C_3
 418 1 3   0.024578  19.652907   7.243093   0.000000   # C_3
 419 1 4   0.057029  22.337128   7.399090   0.000000   # H_
 420 1 3  -0.076193  19.956832   8.620168   0.000000   # C_3
 421 1 5   0.017902  18.986424   4.254947  26.735431   # N_3
 422 1 3  -0.141382  18.275832   6.939168   0.000000   # C_3
 423 1 3   0.042303  18.983197   9.556149   0.000000   # C_3
 424 1 5   0.025421  21.319921   9.172343  26.436885   # N_3
 425 1 3   0.074639  17.339851   7.912803   0.000000   # C_3
 426 1 4   0.055804  18.006872   6.048910   0.000000   # H_
 427 1 3  -0.178151  17.657224   9.238776   0.000000   # C_3
 428 1 3   0.485626  16.600211  10.295789   0.000000   # C_3
 429 1 4   0.006849  19.227950  10.451786   0.000000   # H_
 430 1 4  -0.003714  16.444214   7.668050   0.000000   # H_
 431 1 2  -0.672829  17.014410  11.514178   0.000000   # O_3
 432 1 2  -0.671849  15.381822   9.881590   0.000000   # O_3
 433 1 3  -0.009231  21.554723   9.514460  25.044748   # C_3
 434 1 3  -0.256196  21.909482  10.153778   0.435177   # C_3
 435 1 3  -0.054184  18.595625   3.838866  25.411610   # C_3
 436 1 3  -0.102357  18.410581   3.420364   0.908547   # C_3
 437 1 4   0.061609  22.746216   9.728821   0.994614   # H_
 438 1 4   0.071057  21.175221  10.598638   1.080950   # H_
 439 1 3   0.096253  22.393072  11.279644  26.484491   # C_3
 440 1 4   0.066269  22.435298   8.923286  24.763416   # H_
 441 1 3  -0.094476  21.872365  11.020636  25.083748   # C_3
 442 1 4   0.063831  20.677645   9.370028  24.366431   # H_
 443 1 4   0.067169  20.924281  11.653230  24.874497   # H_
 444 1 4   0.051730  22.617384  11.365174  24.370197   # H_
 445 1 4   0.047910  23.512214  11.332630  26.509504   # H_
 446 1 4   0.055974  21.973225  12.277217  26.890890   # H_
 447 1 4   0.043945  17.951466   4.041393   1.684765   # H_
 448 1 4   0.038266  19.115525   2.750923   1.391868   # H_
 449 1 3  -0.156322  17.341734   2.575292   0.205216   # C_3
 450 1 4   0.010974  16.332058   3.063723   0.278912   # H_
 451 1 4  -0.006002  17.260777   1.510748   0.600857   # H_
 452 1 3   0.053888  17.697568   2.573678  25.579979   # C_3
 453 1 4   0.078288  19.463559   3.646560  24.848139   # H_
 454 1 4   0.072922  18.058781   4.676408  24.934206   # H_
 455 1 4   0.018394  16.784987   2.700896  24.929364   # H_
 456 1 4   0.018962  18.236026   1.662711  25.212579   # H_
 457 1 2  -0.681336   0.000000   1.933822   3.566410   # O_3
 458 1 3   0.498105   0.000000   3.152211   3.152211   # C_3
 459 1 2  -0.681972   0.000000   3.566410   1.933822   # O_3
 460 1 3  -0.197468   0.000000   4.209224   4.209224   # C_3
 461 1 3   0.101065   0.000000   3.891851   5.535197   # C_3
 462 1 3   0.062339   0.000000   5.535197   3.891851   # C_3
 463 1 3  -0.170054   0.000000   4.827832   6.508832   # C_3
 464 1 4  -0.016602   0.000000   2.996214   5.779950   # H_
 465 1 3  -0.095371   0.000000   6.508832   4.827832   # C_3
 466 1 4  -0.002681   0.000000   5.779950   2.996214   # H_
 467 1 3   0.055346   0.000000   6.204907   6.204907   # C_3
 468 1 3  -0.017975   0.000000   7.243093   7.243093   # C_3
 469 1 4   0.078203   0.000000   4.558872   7.399090   # H_
 470 1 3   0.009142   0.000000   6.939168   8.620168   # C_3
 471 1 5   0.025129  26.395196   7.879452   4.263823   # N_3
 472 1 3  -0.105932   0.000000   8.620168   6.939168   # C_3
 473 1 3  -0.012687   0.000000   7.912803   9.556149   # C_3
 474 1 5  -0.163306   0.010220   5.493239   9.216990   # N_3
 475 1 3   0.039894   0.000000   9.556149   7.912803   # C_3
 476 1 4   0.046084   0.000000   8.889128   6.048910   # H_
 477 1 3  -0.144598   0.000000   9.238776   9.238776   # C_3
 478 1 3   0.473976   0.000000  10.295789  10.295789   # C_3
 479 1 4   0.029221   0.000000   7.668050  10.451786   # H_
 480 1 4   0.008263   0.000000  10.451786   7.668050   # H_
 481 1 2  -0.670284   0.000000   9.881590  11.514178   # O_3
 482 1 2  -0.669318   0.000000  11.514178   9.881590   # O_3
 483 1 3  -0.000651   1.277560   5.033048   9.741462   # C_3
 484 1 3   0.043790  25.787347   5.079848  10.106979   # C_3
 485 1 3  -0.237998   0.356641   8.716994   3.394544   # C_3
 486 1 3  -0.011217  24.966212   8.109144   4.059682   # C_3
 487 1 4   0.043344  25.245392   4.219982   9.648402   # H_
 488 1 4   0.054127  25.126512   5.906900  10.314616   # H_