 (written by mofun)

1104 atoms
0 bonds
0 angles
0 dihedrals
0 impropers

5 atom types
   0.000000  20.700400 xlo xhi
   0.000000  20.700400 ylo yhi
   0.000000  20.700400 zlo zhi

Masses

 1 91.2240   # Zr3+4
 2 15.9994   # O_3
 3 12.0107   # C_3
 4 14.0067   # N_3
 5 1.0079   # H_

Pair Coeffs

 1   0.069000   2.783168 # Zr3+4
 2   0.060000   3.118146 # O_3
 3   0.105000   3.430851 # C_3
 4   0.069000   3.260689 # N_3
 5   0.044000   2.571134 # H_

Atoms

 1 1 1   3.171900   2.481771   0.000000   0.000000   # Zr3+4
 2 1 1   3.190200   2.481771  10.350200  10.350200   # Zr3+4
 3 1 1   3.179430  12.831971   0.000000  10.350200   # Zr3+4
 4 1 1   3.181830  12.831971  10.350200   0.000000   # Zr3+4
 5 1 1   3.170550  18.218629   0.000000   0.000000   # Zr3+4
 6 1 1   3.190830  18.218629  10.350200  10.350200   # Zr3+4
 7 1 1   3.180960   7.868429   0.000000  10.350200   # Zr3+4
 8 1 1   3.180230   7.868429  10.350200   0.000000   # Zr3+4
 9 1 1   3.171960   0.000000   2.481771   0.000000   # Zr3+4
 10 1 1   3.146610   0.000000  12.831971  10.350200   # Zr3+4
 11 1 1   3.190290  10.350200   2.481771  10.350200   # Zr3+4
 12 1 1   3.182160  10.350200  12.831971   0.000000   # Zr3+4
 13 1 1   3.170320   0.000000  18.218629   0.000000   # Zr3+4
 14 1 1   3.213350   0.000000   7.868429  10.350200   # Zr3+4
 15 1 1   3.190740  10.350200  18.218629  10.350200   # Zr3+4
 16 1 1   3.179940  10.350200   7.868429   0.000000   # Zr3+4
 17 1 1   3.203020   0.000000   0.000000   2.481771   # Zr3+4
 18 1 1   3.179030   0.000000  10.350200  12.831971   # Zr3+4
 19 1 1   3.146720  10.350200   0.000000  12.831971   # Zr3+4
 20 1 1   3.190800  10.350200  10.350200   2.481771   # Zr3+4
 21 1 1   3.138670   0.000000   0.000000  18.218629   # Zr3+4
 22 1 1   3.180630   0.000000  10.350200   7.868429   # Zr3+4
 23 1 1   3.213760  10.350200   0.000000   7.868429   # Zr3+4
 24 1 1   3.191330  10.350200  10.350200  18.218629   # Zr3+4
 25 1 2  -1.309610   1.161292   9.188908   9.188908   # O_3
 26 1 2  -1.235440  11.511492  19.539108   9.188908   # O_3
 27 1 2  -1.342120  11.511492   9.188908  19.539108   # O_3
 28 1 2  -1.308800   9.188908   1.161292   9.188908   # O_3
 29 1 2  -1.342160   9.188908  11.511492  19.539108   # O_3
 30 1 2  -1.202310  19.539108  19.539108   1.161292   # O_3
 31 1 2  -1.233580  19.539108   9.188908  11.511492   # O_3
 32 1 2  -1.350900   1.161292   1.161292   1.161292   # O_3
 33 1 2  -1.414260  11.511492  11.511492   1.161292   # O_3
 34 1 2  -1.361240  19.539108   1.161292   1.161292   # O_3
 35 1 2  -1.458980  19.539108  11.511492  11.511492   # O_3
 36 1 2  -1.533220   9.188908   1.161292  11.511492   # O_3
 37 1 2  -1.420580   9.188908  11.511492   1.161292   # O_3
 38 1 2  -1.363670   1.161292  19.539108   1.161292   # O_3
 39 1 2  -1.404140   1.161292   9.188908  11.511492   # O_3
 40 1 2  -1.460450  11.511492  19.539108  11.511492   # O_3
 41 1 2  -1.420970  11.511492   9.188908   1.161292   # O_3
 42 1 2  -1.345610  19.539108  19.539108  19.539108   # O_3
 43 1 2  -1.320370  19.539108   9.188908   9.188908   # O_3
 44 1 2  -1.322370   9.188908  19.539108   9.188908   # O_3
 45 1 2  -1.348810   9.188908   9.188908  19.539108   # O_3
 46 1 2  -1.491740   1.161292   1.161292  19.539108   # O_3
 47 1 2  -1.533990   1.161292  11.511492   9.188908   # O_3
 48 1 2  -1.403250  11.511492   1.161292   9.188908   # O_3
 49 1 3   0.531779   3.179581   0.000000  17.520819   # C_3
 50 1 2  -0.745354   3.528590   0.000000  18.727859   # O_3
 51 1 2  -0.801342   1.972541   0.000000  17.171810   # O_3
 52 1 3  -0.168704   4.243582   0.000000  16.456818   # C_3
 53 1 3   0.022875   3.816533   0.000000  15.162836   # C_3
 54 1 4  -0.115387   2.527312  20.088289  14.755866   # N_3
 55 1 5  -0.001698   4.580585   0.000000  13.051809   # H_
 56 1 3   0.004577   4.812636   0.000000  14.167768   # C_3
 57 1 3  -0.211638   6.106618   0.000000  14.593782   # C_3
 58 1 3   0.095551   6.532632   0.000000  15.887764   # C_3
 59 1 3  -0.032850   5.537564   0.000000  16.883867   # C_3
 60 1 5   0.024532   5.769615   0.000000  17.999826   # H_
 61 1 4  -0.208046   7.855181   0.452925  16.267202   # N_3
 62 1 2  -0.805656   8.377452   0.000000  13.878790   # O_3
 63 1 3   0.552626   7.170619   0.000000  13.529781   # C_3
 64 1 2  -0.795723   6.821610   0.000000  12.322741   # O_3
 65 1 5   0.123432   1.706748  20.619047  14.974255   # H_
 66 1 3   0.008362   2.473284  18.643815  15.043188   # C_3
 67 1 5   0.019523   1.974818  18.156528  14.177497   # H_
 68 1 5   0.039239   1.801349  18.589787  15.893974   # H_
 69 1 3  -0.099354   3.642028  17.854716  15.583261   # C_3
 70 1 5   0.084249   4.261798  18.325857  16.299702   # H_
 71 1 3  -0.005444   4.516620  17.229771  14.496283   # C_3
 72 1 5   0.042820   3.138802  16.930443  16.055023   # H_
 73 1 5   0.037844   4.988175  17.974364  13.810479   # H_
 74 1 3  -0.186511   3.890640  16.220833  13.633490   # C_3
 75 1 5   0.025455   5.337598  16.821766  15.105703   # H_
 76 1 3  -0.016039   8.006087   1.899883  15.956282   # C_3
 77 1 5   0.162392   8.568724  20.421566  15.999753   # H_
 78 1 5   0.030297   8.384904   2.446994  16.850747   # H_
 79 1 3  -0.086118   6.850383   2.745287  15.314363   # C_3
 80 1 5   0.046166   8.722942   1.863036  15.202995   # H_
 81 1 5   0.055336   6.276568   2.335833  14.458608   # H_
 82 1 5   0.045476   7.356094   3.586137  14.851916   # H_
 83 1 3  -0.020557   5.870633   3.254724  16.343794   # C_3
 84 1 3  -0.178058   6.333494   4.191624  17.452714   # C_3
 85 1 5   0.040123   5.348983   2.478459  16.901877   # H_
 86 1 5   0.024504   5.095196   3.767473  15.731269   # H_
 87 1 5   0.059981   3.680117  15.323471  14.169838   # H_
 88 1 5   0.067546   4.560298  16.023145  12.832178   # H_
 89 1 5   0.058610   2.945874  16.630908  13.171458   # H_
 90 1 5   0.084055   5.421642   4.439408  18.072691   # H_
 91 1 5   0.066639   6.705688   5.105340  16.999996   # H_
 92 1 5   0.082018   7.074569   3.715515  18.073312   # H_
 93 1 3   0.555897   3.179581  10.350200   7.170619   # C_3
 94 1 2  -0.668561   3.528590  10.350200   8.377659   # O_3
 95 1 2  -0.675732   1.972541  10.350200   6.821610   # O_3
 96 1 3  -0.175408   4.243582  10.350200   6.106618   # C_3
 97 1 3   0.104271   3.816533  10.350200   4.812636   # C_3
 98 1 4  -0.150124   2.521723   9.801432   4.477704   # N_3
 99 1 5   0.040388   4.580585  10.350200   2.701609   # H_
 100 1 3  -0.008860   4.812636  10.350200   3.817568   # C_3
 101 1 3  -0.177529   6.106618  10.350200   4.243582   # C_3
 102 1 3   0.103357   6.532632  10.350200   5.537564   # C_3
 103 1 3  -0.006798   5.537564  10.350200   6.533667   # C_3
 104 1 5   0.040310   5.769615  10.350200   7.649626   # H_
 105 1 4  -0.152582   7.806535  10.939126   5.924868   # N_3
 106 1 2  -0.750120   8.377452  10.350200   3.528590   # O_3
 107 1 3   0.546626   7.170619  10.350200   3.179581   # C_3
 108 1 2  -0.756738   6.821610  10.350200   1.972541   # O_3
 109 1 5   0.056378   1.798658  10.555962   4.636683   # H_
 110 1 3  -0.023435   2.381581   8.409123   4.871632   # C_3
 111 1 5   0.030359   1.889947   7.881056   4.005941   # H_
 112 1 5   0.049858   1.738834   8.373726   5.644999   # H_
 113 1 3  -0.086852   3.580341   7.476363   5.321452   # C_3
 114 1 5   0.051048   4.174236   7.955164   6.161267   # H_
 115 1 3  -0.020224   4.470044   6.901306   4.227436   # C_3
 116 1 5   0.048222   3.078977   6.634271   5.746017   # H_
 117 1 5   0.028669   4.892540   7.722698   3.615739   # H_
 118 1 3  -0.165283   3.707856   6.016364   3.260106   # C_3
 119 1 5   0.022250   5.375894   6.506343   4.738736   # H_
 120 1 3  -0.021782   7.859114  12.358553   5.503408   # C_3
 121 1 5   0.080166   8.563548  10.268640   5.660524   # H_
 122 1 5   0.036621   8.259460  12.908148   6.354402   # H_
 123 1 3  -0.089145   6.568030  13.156967   5.105340   # C_3
 124 1 5   0.050818   8.525874  12.417756   4.677048   # H_
 125 1 5   0.055248   5.942464  12.691208   4.337148   # H_
 126 1 5   0.042788   7.025923  14.024107   4.612256   # H_
 127 1 3  -0.021545   5.616640  13.655226   6.201219   # C_3
 128 1 3  -0.177875   6.165821  14.626075   7.206430   # C_3
 129 1 5   0.035026   5.050691  12.885378   6.713761   # H_
 130 1 5   0.024788   4.902890  14.193229   5.572341   # H_
 131 1 5   0.062685   3.246651   5.161645   3.744288   # H_
 132 1 5   0.061354   4.451000   5.729457   2.482806   # H_
 133 1 5   0.059075   2.918963   6.439273   2.607836   # H_
 134 1 5   0.066363   5.365958  15.113569   7.810468   # H_
 135 1 5   0.064453   6.735289  15.370254   6.688506   # H_
 136 1 5   0.068916   6.870877  14.083103   7.829719   # H_
 137 1 3   0.531537  13.529781   0.000000   7.170619   # C_3
 138 1 2  -0.699519  13.878790   0.000000   8.377659   # O_3
 139 1 2  -0.694182  12.322741   0.000000   6.821610   # O_3
 140 1 3  -0.161902  14.593782   0.000000   6.106618   # C_3
 141 1 3   0.015671  14.166733   0.000000   4.812636   # C_3
 142 1 4  -0.047757  12.860745  20.198001   4.396765   # N_3
 143 1 5  -0.002804  14.930785   0.000000   2.701609   # H_
 144 1 3   0.005706  15.162629   0.000000   3.817568   # C_3
 145 1 3  -0.203303  16.456611   0.000000   4.243582   # C_3
 146 1 3   0.097083  16.882832   0.000000   5.537564   # C_3
 147 1 3  -0.033291  15.887764   0.000000   6.533667   # C_3
 148 1 5   0.026119  16.119815   0.000000   7.649626   # H_
 149 1 4  -0.205086  18.190269   0.577955   5.890713   # N_3
 150 1 2  -0.669677  18.727652   0.000000   3.528590   # O_3
 151 1 3   0.550534  17.520612   0.000000   3.179581   # C_3
 152 1 2  -0.718289  17.171603   0.000000   1.972541   # O_3
 153 1 5   0.011165  12.142648   0.194584   4.628402   # H_
 154 1 3  -0.010853  12.743166  18.771123   4.721554   # C_3
 155 1 5   0.033156  12.256293  18.240985   3.885051   # H_
 156 1 5   0.067139  12.080339  18.749387   5.562818   # H_
 157 1 3  -0.074774  13.780877  17.827184   5.280051   # C_3
 158 1 5   0.078016  14.315776  18.255062   6.116347   # H_
 159 1 3  -0.047352  14.860196  17.296012   4.311479   # C_3
 160 1 5   0.042269  13.129022  17.006828   5.701718   # H_
 161 1 5   0.064273  15.381846  18.135206   3.788173   # H_
 162 1 3  -0.148853  14.167975  16.366150   3.202145   # C_3
 163 1 5   0.040236  15.619280  16.774569   4.812015   # H_
 164 1 3  -0.018938  18.226495   1.982477   5.486848   # C_3
 165 1 5   0.184250  18.988477  20.620289   5.651416   # H_
 166 1 5   0.048226  18.629739   2.527726   6.327284   # H_
 167 1 3  -0.090479  16.931892   2.711131   4.983828   # C_3
 168 1 5   0.076689  18.893255   2.058241   4.666905   # H_
 169 1 5   0.056796  16.327026   2.330244   4.147532   # H_
 170 1 5   0.054439  17.346107   3.584481   4.551604   # H_
 171 1 3  -0.014030  15.954419   3.258657   6.049278   # C_3
 172 1 3  -0.166890  16.545416   4.114204   7.068359   # C_3
 173 1 5   0.036243  15.393231   2.413667   6.536979   # H_
 174 1 5   0.022378  15.213552   3.853172   5.437374   # H_
 175 1 5   0.050536  13.806339  15.336512   3.565437   # H_
 176 1 5   0.065475  14.902632  16.258922   2.411804   # H_
 177 1 5   0.056750  13.279928  16.856129   2.750876   # H_
 178 1 5   0.063194  15.846984   4.421605   7.859528   # H_
 179 1 5   0.059189  17.028977   5.039926   6.648347   # H_
 180 1 5   0.064869  17.291044   3.495263   7.576346   # H_
 181 1 3   0.536599  13.529781  10.350200  17.520819   # C_3
 182 1 2  -0.711576  13.878790  10.350200  18.727859   # O_3
 183 1 2  -0.738989  12.322741  10.350200  17.171810   # O_3
 184 1 3  -0.172683  14.593782  10.350200  16.456818   # C_3
 185 1 3   0.099877  14.166733  10.350200  15.162836   # C_3
 186 1 4  -0.149529  12.860123   9.850078  14.704943   # N_3
 187 1 5   0.041017  14.930785  10.350200  13.051809   # H_
 188 1 3  -0.009874  15.162629  10.350200  14.167768   # C_3
 189 1 3  -0.167931  16.456611  10.350200  14.593782   # C_3
 190 1 3   0.104086  16.882832  10.350200  15.887764   # C_3
 191 1 3  -0.006496  15.887764  10.350200  16.883867   # C_3
 192 1 5   0.044425  16.119815  10.350200  17.999826   # H_
 193 1 4  -0.145840  18.166257  11.009922  16.216072   # N_3
 194 1 2  -0.629991  18.727652  10.350200  13.878790   # O_3
 195 1 3   0.545079  17.520612  10.350200  13.529781   # C_3
 196 1 2  -0.664880  17.171603  10.350200  12.322741   # O_3
 197 1 5   0.071622  12.168730  10.639178  14.717156   # H_
 198 1 3  -0.017020  12.606958   8.395047  14.964112   # C_3
 199 1 5   0.028073  12.105801   7.923699  14.103390   # H_
 200 1 5   0.052399  12.021136   8.339363  15.874102   # H_
 201 1 3  -0.097015  13.748585   7.555646  15.563389   # C_3
 202 1 5   0.064624  14.260920   8.007122  16.400927   # H_
 203 1 3  -0.017947  14.860817   7.011846  14.667889   # C_3
 204 1 5   0.051755  13.247014   6.688713  15.961250   # H_
 205 1 5   0.036424  15.274825   7.803844  14.061161   # H_
 206 1 3  -0.183481  14.206478   6.019676  13.674684   # C_3
 207 1 5   0.027786  15.750313   6.611087  15.294905   # H_
 208 1 3  -0.033407  18.173916  12.437835  15.721540   # C_3
 209 1 5   0.092587  18.962601  10.304245  16.002030   # H_
 210 1 5   0.058480  18.597032  13.027383  16.532374   # H_
 211 1 3  -0.084813  16.901670  13.162349  15.318296   # C_3
 212 1 5   0.084312  18.801966  12.532229  14.866406   # H_
 213 1 5   0.053077  16.201582  12.669266  14.659609   # H_
 214 1 5   0.047495  17.229564  14.026384  14.712395   # H_
 215 1 3  -0.022931  16.059163  13.679238  16.479381   # C_3
 216 1 3  -0.169026  16.688041  14.544308  17.531169   # C_3
 217 1 5   0.031912  15.539997  12.821828  16.932099   # H_
 218 1 5   0.023963  15.309395  14.271477  15.983400   # H_
 219 1 5   0.055609  13.823520   5.102235  14.107323   # H_
 220 1 5   0.064999  14.866820   5.813707  12.835490   # H_
 221 1 5   0.066162  13.363557   6.448796  13.209132   # H_
 222 1 5   0.082906  15.904945  15.029111  18.199792   # H_
 223 1 5   0.068427  17.219007  15.370254  17.030219   # H_
 224 1 5   0.076763  17.386266  13.971942  18.130652   # H_
 225 1 3   0.522379  17.520819   0.000000  17.520819   # C_3
 226 1 2  -0.752454  17.171810   0.000000  18.727859   # O_3
 227 1 2  -0.756183  18.727859   0.000000  17.171810   # O_3
 228 1 3  -0.166628  16.456818   0.000000  16.456818   # C_3
 229 1 3   0.019939  16.883867   0.000000  15.162836   # C_3
 230 1 4  -0.104846  18.014730  19.721892  14.831837   # N_3
 231 1 5  -0.011809  16.119815   0.000000  13.051809   # H_
 232 1 3   0.000403  15.887971   0.000000  14.167768   # C_3
 233 1 3  -0.212160  14.593989   0.000000  14.593782   # C_3
 234 1 3   0.075878  14.167768   0.000000  15.887764   # C_3
 235 1 3  -0.034808  15.162836   0.000000  16.883867   # C_3
 236 1 5   0.007843  14.930785   0.000000  17.999826   # H_
 237 1 4  -0.210511  12.788500   0.395792  16.239257   # N_3
 238 1 2  -0.806505  12.322948   0.000000  13.878790   # O_3
 239 1 3   0.545723  13.529988   0.000000  13.529781   # C_3
 240 1 2  -0.803097  13.878997   0.000000  12.322741   # O_3
 241 1 5   0.108181  18.076417  18.895325  15.474998   # H_
 242 1 3   0.035861  19.393377  20.116649  14.571219   # C_3
 243 1 5   0.054656  19.793101  19.672211  13.698490   # H_
 244 1 5   0.074892  19.951874  19.779439  15.364665   # H_
 245 1 3  -0.007406  19.698708   0.829879  14.619658   # C_3
 246 1 5   0.053465  19.197965   1.283011  15.432769   # H_
 247 1 3  -0.127318  19.261515   1.470556  13.431248   # C_3
 248 1 5  -0.087035   0.041401   0.774195  14.915052   # H_
 249 1 5   0.081930  19.112679   2.495847  13.681722   # H_
 250 1 3   0.028438  20.377060   1.304953  12.459157   # C_3
 251 1 5   0.027811  18.259823   1.060895  13.271026   # H_
 252 1 3   0.135149  11.980978  19.862034  16.199305   # C_3
 253 1 5   0.081072  12.366833   1.212422  15.831873   # H_
 254 1 5  -0.000710  10.990049  20.028465  15.763355   # H_
 255 1 3  -0.206010  11.844355  19.367915  17.572984   # C_3
 256 1 5   0.032411  12.444459  19.039607  15.582847   # H_
 257 1 5   0.106111  12.721017  19.677800  18.120716   # H_
 258 1 5   0.082282  11.916599  18.333102  17.486042   # H_
 259 1 3   0.145596  10.500692  19.867416  18.107468   # C_3
 260 1 3  -0.361742  10.328465   0.635088  17.820560   # C_3
 261 1 5   0.033327  10.545612  19.838435  19.174781   # H_
 262 1 5   0.004795   9.663361  19.203140  17.772535   # H_
 263 1 5  -0.000264  20.446613   0.318372  11.961933   # H_
 264 1 5  -0.053363   0.638193   1.568676  12.919534   # H_
 265 1 5   0.036781  20.149148   2.052652  11.654325   # H_
 266 1 5   0.096316  11.329536   0.939177  17.897566   # H_
 267 1 5   0.099927   9.700414   1.316545  18.405761   # H_
 268 1 5   0.083891  10.049837   0.773781  16.829011   # H_
 269 1 3   0.532935  17.520819  10.350200   7.170619   # C_3
 270 1 2  -0.742250  17.171810  10.350200   8.377659   # O_3
 271 1 2  -0.711778  18.727859  10.350200   6.821610   # O_3
 272 1 3  -0.169611  16.456818  10.350200   6.106618   # C_3
 273 1 3   0.086743  16.883867  10.350200   4.812636   # C_3
 274 1 4  -0.145617  18.000861   9.351613   4.513722   # N_3
 275 1 5   0.027822  16.119815  10.350200   2.701609   # H_
 276 1 3  -0.003396  15.887971  10.350200   3.817568   # C_3
 277 1 3  -0.179432  14.593989  10.350200   4.243582   # C_3
 278 1 3   0.095399  14.167768  10.350200   5.537564   # C_3
 279 1 3  -0.012643  15.162836  10.350200   6.533667   # C_3
 280 1 5   0.037804  14.930785  10.350200   7.649626   # H_
 281 1 4  -0.158156  12.739233  10.694655   5.885124   # N_3
 282 1 2  -0.663557  12.322948  10.350200   3.528590   # O_3
 283 1 3   0.553253  13.529988  10.350200   3.179581   # C_3
 284 1 2  -0.681321  13.878997  10.350200   1.972541   # O_3
 285 1 5   0.094049  18.078280   8.596048   5.270529   # H_
 286 1 3  -0.008931  19.374125   9.710144   4.223089   # C_3
 287 1 5   0.045587  19.746733   9.257426   3.346634   # H_
 288 1 5   0.051781  19.938625   9.395291   5.088158   # H_
 289 1 3  -0.091992  19.589824  11.171592   4.257658   # C_3
 290 1 5   0.075824  19.208108  11.657844   5.150674   # H_
 291 1 3  -0.069500  19.062170  11.887205   3.097401   # C_3
 292 1 5   0.091073  20.663346  11.198502   4.277738   # H_
 293 1 5   0.066948  19.027808  12.909597   3.412254   # H_
 294 1 3   0.002998  19.958498  11.761760   1.930312   # C_3
 295 1 5   0.037357  18.029013  11.559517   2.973405   # H_
 296 1 3   0.021914  11.981392   9.435242   5.781622   # C_3
 297 1 5   0.085728  12.381530  11.574215   5.491816   # H_
 298 1 5  -0.007553  11.052565   9.628791   5.276325   # H_
 299 1 3  -0.114848  11.771903   8.973416   7.176415   # C_3
 300 1 5   0.037067  12.516290   8.683818   5.178205   # H_
 301 1 5   0.046528  12.548168   9.436277   7.849799   # H_
 302 1 5   0.057510  11.860501   7.930323   7.312416   # H_
 303 1 3  -0.012545  10.423065   9.526738   7.637413   # C_3
 304 1 3  -0.179273  10.307350  11.004540   7.303722   # C_3
 305 1 5   0.019331  10.476265   9.517837   8.762065   # H_
 306 1 5   0.025333   9.512248   9.041728   7.309518   # H_
 307 1 5   0.032773  20.108990  10.700244   1.632641   # H_
 308 1 5  -0.044712   0.310920  12.139543   2.220532   # H_
 309 1 5   0.006511  19.592308  12.311149   1.000036   # H_
 310 1 5   0.070189  11.325603  11.254600   7.571792   # H_
 311 1 5   0.059264   9.563171  11.647701   7.872362   # H_
 312 1 5   0.064924  10.161619  11.187117   6.279673   # H_
 313 1 3   0.534849   7.170619   0.000000   7.170619   # C_3
 314 1 2  -0.712986   6.821610   0.000000   8.377659   # O_3
 315 1 2  -0.700310   8.377659   0.000000   6.821610   # O_3
 316 1 3  -0.176790   6.106618   0.000000   6.106618   # C_3
 317 1 3   0.023469   6.533667   0.000000   4.812636   # C_3
 318 1 4  -0.126933   7.742985  19.752115   4.448930   # N_3
 319 1 5  -0.012059   5.769615   0.000000   2.701609   # H_
 320 1 3   0.001022   5.537564   0.000000   3.817568   # C_3
 321 1 3  -0.207076   4.243582   0.000000   4.243582   # C_3
 322 1 3   0.070579   3.817568   0.000000   5.537564   # C_3
 323 1 3  -0.029770   4.812636   0.000000   6.533667   # C_3
 324 1 5   0.003997   4.580585   0.000000   7.649626   # H_
 325 1 4  -0.212299   2.402074   0.389375   5.915346   # N_3
 326 1 2  -0.707912   1.972748   0.000000   3.528590   # O_3
 327 1 3   0.554747   3.179581   0.000000   3.179581   # C_3
 328 1 2  -0.727050   3.528590   0.000000   1.972541   # O_3
 329 1 5   0.102256   7.716074  19.038572   5.245274   # H_
 330 1 3   0.198564   9.111281  20.136935   4.312514   # C_3
 331 1 5  -0.003554   9.623616  19.749424   3.473527   # H_
 332 1 5  -0.015037   9.637485  19.806143   5.182345   # H_
 333 1 3  -0.299290   9.266741   0.808558   4.342944   # C_3
 334 1 5   0.106297   8.802224   1.369331   5.174272   # H_
 335 1 3   0.057008   8.859150   1.410525   3.100092   # C_3
 336 1 5   0.061778  10.332812   0.807316   4.467767   # H_
 337 1 5   0.016331   8.654009   2.512615   3.289501   # H_
 338 1 3  -0.194676   9.897689   1.362293   2.035884   # C_3
 339 1 5  -0.010316   7.888715   0.980164   2.845477   # H_
 340 1 3   0.127307   1.599520  19.868658   5.914932   # C_3
 341 1 5   0.087048   2.037747   1.193171   5.433855   # H_
 342 1 5  -0.022537   0.629913  20.060551   5.488711   # H_
 343 1 3  -0.190866   1.454617  19.430016   7.330219   # C_3
 344 1 5   0.035070   2.081218  19.113714   5.280672   # H_
 345 1 5   0.093978   2.328381  19.708644   7.923492   # H_
 346 1 5   0.066341   1.469314  18.353596   7.311174   # H_
 347 1 3   0.130334   0.110747  19.941730   7.903620   # C_3
 348 1 3  -0.681865   0.009108   0.675247   7.622094   # C_3
 349 1 5  -0.010383   0.209902  19.978784   8.952302   # H_
 350 1 5   0.075998  19.902400  19.419873   7.512796   # H_
 351 1 5   0.054368  10.882821   1.683771   2.476389   # H_
 352 1 5   0.036866   9.639555   2.097986   1.270798   # H_
 353 1 5   0.013539   9.979249   0.384406   1.597657   # H_
 354 1 5   0.157296   1.001692   0.965881   7.925976   # H_
 355 1 5   0.230691  20.030328   1.393344   8.088474   # H_
 356 1 5   0.238415  20.528173   0.796551   6.578794   # H_
 357 1 3   0.537685   7.170619  10.350200  17.520819   # C_3
 358 1 2  -0.635358   6.821610  10.350200  18.727859   # O_3
 359 1 2  -0.660080   8.377659  10.350200  17.171810   # O_3
 360 1 3  -0.166068   6.106618  10.350200  16.456818   # C_3
 361 1 3   0.082303   6.533667  10.350200  15.162836   # C_3
 362 1 4  -0.153345   7.667221   9.324081  14.863301   # N_3
 363 1 5   0.028521   5.769615  10.350200  13.051809   # H_
 364 1 3  -0.002730   5.537564  10.350200  14.167768   # C_3
 365 1 3  -0.184745   4.243582  10.350200  14.593782   # C_3
 366 1 3   0.096807   3.817568  10.350200  15.887764   # C_3
 367 1 3  -0.017280   4.812636  10.350200  16.883867   # C_3
 368 1 5   0.040391   4.580585  10.350200  17.999826   # H_
 369 1 4  -0.156113   2.411804  10.729431  16.280658   # N_3
 370 1 2  -0.755836   1.972748  10.350200  13.878790   # O_3
 371 1 3   0.545184   3.179581  10.350200  13.529781   # C_3
 372 1 2  -0.757606   3.528590  10.350200  12.322741   # O_3
 373 1 5   0.084225   7.633272   8.524425  15.537099   # H_
 374 1 3   0.026737   9.033034   9.698137  14.593161   # C_3
 375 1 5   0.013932   9.364654   9.386596  13.680480   # H_
 376 1 5   0.003993   9.637071   9.353476  15.372738   # H_
 377 1 3  -0.165391   9.292617  11.138471  14.699147   # C_3
 378 1 5   0.088666   8.755441  11.567177  15.461543   # H_
 379 1 3   0.017700   8.902828  11.861950  13.539097   # C_3
 380 1 5   0.049555  10.326188  11.175939  14.916294   # H_
 381 1 5   0.026054   8.643452  12.869232  13.823106   # H_
 382 1 3  -0.192584   9.920667  11.842492  12.379874   # C_3
 383 1 5   0.016741   7.947505  11.438420  13.263988   # H_
 384 1 3   0.011501   1.694328   9.436070  16.210897   # C_3
 385 1 5   0.069793   1.911268  11.468436  15.740170   # H_
 386 1 5  -0.026862   0.711680   9.706625  15.744103   # H_
 387 1 3  -0.114089   1.456480   9.066568  17.614798   # C_3
 388 1 5   0.040101   2.129243   8.737846  15.558421   # H_
 389 1 5   0.053868   2.306439   9.493203  18.199999   # H_
 390 1 5   0.051965   1.556670   7.982695  17.708364   # H_
 391 1 3  -0.013869   0.088598   9.623616  18.197722   # C_3
 392 1 3  -0.555350   0.001242  11.030208  17.813108   # C_3
 393 1 5   0.002231   0.156288   9.578489  19.282216   # H_
 394 1 5   0.092772  19.873419   9.192634  17.831946   # H_
 395 1 5   0.063201   9.894170  10.882821  11.935644   # H_
 396 1 5   0.059356  10.994189  12.086343  12.593916   # H_
 397 1 5   0.065496   9.600018  12.553551  11.646045   # H_
 398 1 5   0.159047   0.935658  11.424137  18.064411   # H_
 399 1 5   0.202146  19.977542  11.558482  18.485250   # H_
 400 1 5   0.247692  20.507679  11.198502  16.801066   # H_
 401 1 3   0.525713  17.520819   3.179581   0.000000   # C_3
 402 1 2  -0.737626  18.727859   3.528590   0.000000   # O_3
 403 1 2  -0.785641  17.171810   1.972541   0.000000   # O_3
 404 1 3  -0.160966  16.456818   4.243582   0.000000   # C_3
 405 1 3   0.016439  15.162836   3.816533   0.000000   # C_3
 406 1 4  -0.053333  14.740134   2.456309  20.334624   # N_3
 407 1 5   0.006518  13.051809   4.580585   0.000000   # H_
 408 1 3   0.002305  14.167768   4.812636   0.000000   # C_3
 409 1 3  -0.203642  14.593782   6.106618   0.000000   # C_3
 410 1 3   0.093873  15.887764   6.532632   0.000000   # C_3
 411 1 3  -0.032834  16.883867   5.537564   0.000000   # C_3
 412 1 5   0.025049  17.999826   5.769615   0.000000   # H_
 413 1 4  -0.203612  16.245674   7.860563   0.498259   # N_3
 414 1 2  -0.711345  13.878790   8.377452   0.000000   # O_3
 415 1 3   0.554831  13.529781   7.170619   0.000000   # C_3
 416 1 2  -0.709517  12.322741   6.821610   0.000000   # O_3
 417 1 5   0.000946  15.073617   1.820186   0.420839   # H_
 418 1 3  -0.015303  15.014621   2.194449  18.952458   # C_3
 419 1 5   0.023144  14.096144   1.755187  18.446954   # H_
 420 1 5   0.050049  15.796061   1.526240  18.991375   # H_
 421 1 3  -0.075277  15.532338   3.346634  18.029220   # C_3
 422 1 5   0.071857  16.408379   3.844685  18.348628   # H_
 423 1 3  -0.008044  14.547413   4.467767  17.662202   # C_3
 424 1 5   0.036535  15.949244   2.841130  17.060856   # H_
 425 1 5   0.054287  13.836768   4.964577  18.328962   # H_
 426 1 3  -0.208907  13.750448   3.841166  16.531339   # C_3
 427 1 5   0.033667  15.252055   5.240927  17.239293   # H_
 428 1 3  -0.014603  15.912604   7.971310   1.938385   # C_3
 429 1 5   0.158588  16.069307   8.616542  20.465243   # H_
 430 1 5   0.030838  16.746003   8.326322   2.495640   # H_
 431 1 3  -0.094753  15.256816   6.825750   2.704714   # C_3
 432 1 5   0.044938  15.145034   8.682369   1.976474   # H_
 433 1 5   0.055600  14.344549   6.301823   2.314098   # H_
 434 1 5   0.048871  14.866613   7.348435   3.537491   # H_
 435 1 3  -0.005030  16.240085   5.787418   3.204008   # C_3
 436 1 3  -0.205886  17.314436   6.241378   4.104682   # C_3
 437 1 5   0.039326  16.743933   5.359127   2.350944   # H_
 438 1 5   0.022179  15.719056   4.971822   3.714066   # H_
 439 1 5   0.068679  14.360902   3.847169  15.668340   # H_
 440 1 5   0.071246  12.898212   4.445825  16.282521   # H_
 441 1 5   0.074526  13.374735   2.886257  16.702946   # H_
 442 1 5   0.092806  18.013281   5.433648   4.283327   # H_
 443 1 5   0.075556  17.047400   6.637583   5.060627   # H_
 444 1 5   0.085102  17.882455   6.979968   3.567507   # H_
 445 1 3   0.538705  17.520819  13.529781  10.350200   # C_3
 446 1 2  -0.718243  18.727859  13.878790  10.350200   # O_3
 447 1 2  -0.737279  17.171810  12.322741  10.350200   # O_3
 448 1 3  -0.166920  16.456818  14.593782  10.350200   # C_3
 449 1 3   0.097257  15.162836  14.166733  10.350200   # C_3
 450 1 4  -0.149498  14.781949  12.860952   9.706418   # N_3
 451 1 5   0.037405  13.051809  14.930785  10.350200   # H_
 452 1 3  -0.004478  14.167768  15.162629  10.350200   # C_3
 453 1 3  -0.173033  14.593782  16.456611  10.350200   # C_3
 454 1 3   0.111469  15.887764  16.882832  10.350200   # C_3
 455 1 3  -0.012002  16.883867  15.887764  10.350200   # C_3
 456 1 5   0.048689  17.999826  16.119815  10.350200   # H_
 457 1 4  -0.153684  16.268858  18.227323  10.795673   # N_3
 458 1 2  -0.631582  13.878790  18.727652  10.350200   # O_3
 459 1 3   0.546569  13.529781  17.520612  10.350200   # C_3
 460 1 2  -0.666878  12.322741  17.171603  10.350200   # O_3
 461 1 5   0.074685  14.811964  12.020722  10.322461   # H_
 462 1 3  -0.010165  15.229698  12.775045   8.309555   # C_3
 463 1 5   0.032161  14.446395  12.325639   7.743606   # H_
 464 1 5   0.029106  16.118366  12.210752   8.266705   # H_
 465 1 3  -0.103681  15.704772  14.003200   7.519213   # C_3
 466 1 5   0.059711  16.430528  14.571012   8.010641   # H_
 467 1 3  -0.019255  14.610135  14.983571   6.987420   # C_3
 468 1 5   0.042588  16.194751  13.546342   6.636548   # H_
 469 1 5   0.038137  13.981050  15.387021   7.746090   # H_
 470 1 3  -0.187700  13.654605  14.291349   6.051555   # C_3
 471 1 5   0.030331  15.150416  15.772670   6.535116   # H_
 472 1 3  -0.039026  15.989403  18.401828  12.236213   # C_3
 473 1 5   0.100606  16.050469  18.958047  10.083993   # H_
 474 1 5   0.050438  16.888214  18.760359  12.678788   # H_
 475 1 3  -0.089054  15.422833  17.260408  13.091140   # C_3
 476 1 5   0.088600  15.241912  19.117440  12.203714   # H_
 477 1 5   0.055639  14.477032  16.848470  12.737784   # H_
 478 1 5   0.062202  15.165527  17.781023  13.963662   # H_
 479 1 3  -0.024084  16.362631  16.155627  13.550896   # C_3
 480 1 3  -0.181991  17.478590  16.596960  14.494627   # C_3
 481 1 5   0.040480  16.860683  15.675999  12.738819   # H_
 482 1 5   0.025513  15.714502  15.420349  14.013964   # H_
 483 1 5   0.069314  14.146446  13.707598   5.334493   # H_
 484 1 5   0.072551  13.077478  14.973634   5.500717   # H_
 485 1 5   0.061266  12.995918  13.575322   6.625577   # H_
 486 1 5   0.091166  18.167706  15.792542  14.755038   # H_
 487 1 5   0.071688  17.052783  16.982401  15.431941   # H_
 488 1 5   0.079313  18.085525  17.345279  13.985811   # H_