 (written by mofun)

576 atoms
0 bonds
0 angles
0 dihedrals
0 impropers

5 atom types
   0.000000  20.700400 xlo xhi
   0.000000  20.700400 ylo yhi
   0.000000  20.700400 zlo zhi

Masses

 1 91.2240   # Zr3+4
 2 15.9994   # O_3
 3 12.0107   # C_3
 4 1.0079   # H_
 5 18.9984   # F_

Pair Coeffs

 1   0.069000   2.783168 # Zr3+4
 2   0.060000   3.118146 # O_3
 3   0.105000   3.430851 # C_3
 4   0.044000   2.571134 # H_
 5   0.050000   2.996983 # F_

Atoms

 1 1 1   3.173080   2.481771   0.000000   0.000000   # Zr3+4
 2 1 1   3.193690   2.481771  10.350200  10.350200   # Zr3+4
 3 1 1   3.181630  12.831971   0.000000  10.350200   # Zr3+4
 4 1 1   3.184130  12.831971  10.350200   0.000000   # Zr3+4
 5 1 1   3.171740  18.218629   0.000000   0.000000   # Zr3+4
 6 1 1   3.194330  18.218629  10.350200  10.350200   # Zr3+4
 7 1 1   3.183680   7.868429   0.000000  10.350200   # Zr3+4
 8 1 1   3.181710   7.868429  10.350200   0.000000   # Zr3+4
 9 1 1   3.173540   0.000000   2.481771   0.000000   # Zr3+4
 10 1 1   3.150130   0.000000  12.831971  10.350200   # Zr3+4
 11 1 1   3.193680  10.350200   2.481771  10.350200   # Zr3+4
 12 1 1   3.183990  10.350200  12.831971   0.000000   # Zr3+4
 13 1 1   3.172200   0.000000  18.218629   0.000000   # Zr3+4
 14 1 1   3.216320   0.000000   7.868429  10.350200   # Zr3+4
 15 1 1   3.194330  10.350200  18.218629  10.350200   # Zr3+4
 16 1 1   3.181680  10.350200   7.868429   0.000000   # Zr3+4
 17 1 1   3.205180   0.000000   0.000000   2.481771   # Zr3+4
 18 1 1   3.182190   0.000000  10.350200  12.831971   # Zr3+4
 19 1 1   3.149620  10.350200   0.000000  12.831971   # Zr3+4
 20 1 1   3.194130  10.350200  10.350200   2.481771   # Zr3+4
 21 1 1   3.141600   0.000000   0.000000  18.218629   # Zr3+4
 22 1 1   3.184160   0.000000  10.350200   7.868429   # Zr3+4
 23 1 1   3.215790  10.350200   0.000000   7.868429   # Zr3+4
 24 1 1   3.194880  10.350200  10.350200  18.218629   # Zr3+4
 25 1 2  -1.300010   1.161292   9.188908   9.188908   # O_3
 26 1 2  -1.218790  11.511492  19.539108   9.188908   # O_3
 27 1 2  -1.321100  11.511492   9.188908  19.539108   # O_3
 28 1 2  -1.301180   9.188908   1.161292   9.188908   # O_3
 29 1 2  -1.320830   9.188908  11.511492  19.539108   # O_3
 30 1 2  -1.186630  19.539108  19.539108   1.161292   # O_3
 31 1 2  -1.221570  19.539108   9.188908  11.511492   # O_3
 32 1 2  -1.347440   1.161292   1.161292   1.161292   # O_3
 33 1 2  -1.405800  11.511492  11.511492   1.161292   # O_3
 34 1 2  -1.352690  19.539108   1.161292   1.161292   # O_3
 35 1 2  -1.443610  19.539108  11.511492  11.511492   # O_3
 36 1 2  -1.522980   9.188908   1.161292  11.511492   # O_3
 37 1 2  -1.413810   9.188908  11.511492   1.161292   # O_3
 38 1 2  -1.348520   1.161292  19.539108   1.161292   # O_3
 39 1 2  -1.393590   1.161292   9.188908  11.511492   # O_3
 40 1 2  -1.440880  11.511492  19.539108  11.511492   # O_3
 41 1 2  -1.413770  11.511492   9.188908   1.161292   # O_3
 42 1 2  -1.313560  19.539108  19.539108  19.539108   # O_3
 43 1 2  -1.307310  19.539108   9.188908   9.188908   # O_3
 44 1 2  -1.304470   9.188908  19.539108   9.188908   # O_3
 45 1 2  -1.328670   9.188908   9.188908  19.539108   # O_3
 46 1 2  -1.469800   1.161292   1.161292  19.539108   # O_3
 47 1 2  -1.521960   1.161292  11.511492   9.188908   # O_3
 48 1 2  -1.394870  11.511492   1.161292   9.188908   # O_3
 49 1 3   0.511027   3.179581   0.000000  17.520819   # C_3
 50 1 2  -0.643569   3.528590   0.000000  18.727859   # O_3
 51 1 2  -0.696754   1.972541   0.000000  17.171810   # O_3
 52 1 3  -0.043843   4.243582   0.000000  16.456818   # C_3
 53 1 3   0.092361   3.816533   0.000000  15.162836   # C_3
 54 1 4   0.135619   2.700574   0.000000  14.930785   # H_
 55 1 3   0.956777   4.311686  20.696053  12.675890   # C_3
 56 1 3  -0.163187   4.812636   0.000000  14.167768   # C_3
 57 1 3  -0.029653   6.106618   0.000000  14.593782   # C_3
 58 1 3   0.075959   6.532632   0.000000  15.887764   # C_3
 59 1 3  -0.125853   5.537564   0.000000  16.883867   # C_3
 60 1 3   0.954319   6.105169  20.631054  18.380920   # C_3
 61 1 4   0.152997   7.648591   0.000000  16.119815   # H_
 62 1 2  -0.697631   8.377452   0.000000  13.878790   # O_3
 63 1 3   0.507639   7.170619   0.000000  13.529781   # C_3
 64 1 2  -0.684646   6.821610   0.000000  12.322741   # O_3
 65 1 5  -0.302492   2.911097  20.657550  12.553965   # F_
 66 1 5  -0.418157   4.754882  19.540143  12.037490   # F_
 67 1 5  -0.504604   4.730248   1.133347  12.044114   # F_
 68 1 5  -0.443346   5.701718   1.093188  19.040228   # F_
 69 1 5  -0.288208   7.481125  20.641611  18.314265   # F_
 70 1 5  -0.383593   5.693231  19.469140  18.980611   # F_
 71 1 3   0.535330   3.179581  10.350200   7.170619   # C_3
 72 1 2  -0.564907   3.528590  10.350200   8.377659   # O_3
 73 1 2  -0.577350   1.972541  10.350200   6.821610   # O_3
 74 1 3  -0.057278   4.243582  10.350200   6.106618   # C_3
 75 1 3   0.086675   3.816533  10.350200   4.812636   # C_3
 76 1 4   0.173532   2.700574  10.350200   4.580585   # H_
 77 1 3   0.768221   4.311686  10.343990   2.325690   # C_3
 78 1 3  -0.041003   4.812636  10.350200   3.817568   # C_3
 79 1 3  -0.045044   6.106618  10.350200   4.243582   # C_3
 80 1 3   0.072933   6.532632  10.350200   5.537564   # C_3
 81 1 3  -0.016722   5.537564  10.350200   6.533667   # C_3
 82 1 3   0.779587   6.091300  10.278991   8.043347   # C_3
 83 1 4   0.189195   7.648591  10.350200   5.769615   # H_
 84 1 2  -0.651871   8.377452  10.350200   3.528590   # O_3
 85 1 3   0.521596   7.170619  10.350200   3.179581   # C_3
 86 1 2  -0.648353   6.821610  10.350200   1.972541   # O_3
 87 1 5  -0.350358   2.910890  10.304659   2.203972   # F_
 88 1 5  -0.439826   4.755917   9.187873   1.688946   # F_
 89 1 5  -0.441107   4.729420  11.481477   1.692672   # F_
 90 1 5  -0.416236   5.587245  11.381701   8.740537   # F_
 91 1 5  -0.338555   7.448832  10.417062   8.007329   # F_
 92 1 5  -0.418567   5.778517   9.065740   8.619854   # F_
 93 1 3   0.513774  13.529781   0.000000   7.170619   # C_3
 94 1 2  -0.611497  13.878790   0.000000   8.377659   # O_3
 95 1 2  -0.600216  12.322741   0.000000   6.821610   # O_3
 96 1 3  -0.038927  14.593782   0.000000   6.106618   # C_3
 97 1 3   0.090461  14.166733   0.000000   4.812636   # C_3
 98 1 4   0.139151  13.050774   0.000000   4.580585   # H_
 99 1 3   0.952103  14.661886  20.687152   2.326311   # C_3
 100 1 3  -0.156794  15.162629   0.000000   3.817568   # C_3
 101 1 3  -0.023973  16.456611   0.000000   4.243582   # C_3
 102 1 3   0.090346  16.882832   0.000000   5.537564   # C_3
 103 1 3  -0.138839  15.887764   0.000000   6.533667   # C_3
 104 1 3   1.036250  16.440879  20.629191   8.043761   # C_3
 105 1 4   0.167673  17.998791   0.000000   5.769615   # H_
 106 1 2  -0.560041  18.727652   0.000000   3.528590   # O_3
 107 1 3   0.510129  17.520612   0.000000   3.179581   # C_3
 108 1 2  -0.607596  17.171603   0.000000   1.972541   # O_3
 109 1 5  -0.303364  13.261297  20.644302   2.204800   # F_
 110 1 5  -0.416878  15.109636  19.532069   1.694328   # F_
 111 1 5  -0.513447  15.076515   1.126102   1.690602   # F_
 112 1 5  -0.494208  15.933305   1.030052   8.741158   # F_
 113 1 5  -0.430508  17.797997   0.069967   8.010020   # F_
 114 1 5  -0.413411  16.129752  19.415112   8.619440   # F_
 115 1 3   0.516665  13.529781  10.350200  17.520819   # C_3
 116 1 2  -0.597098  13.878790  10.350200  18.727859   # O_3
 117 1 2  -0.642678  12.322741  10.350200  17.171810   # O_3
 118 1 3  -0.052994  14.593782  10.350200  16.456818   # C_3
 119 1 3   0.085050  14.166733  10.350200  15.162836   # C_3
 120 1 4   0.179505  13.050774  10.350200  14.930785   # H_
 121 1 3   0.770250  14.661886  10.337366  12.676511   # C_3
 122 1 3  -0.038832  15.162629  10.350200  14.167768   # C_3
 123 1 3  -0.032732  16.456611  10.350200  14.593782   # C_3
 124 1 3   0.076362  16.882832  10.350200  15.887764   # C_3
 125 1 3  -0.009813  15.887764  10.350200  16.883867   # C_3
 126 1 3   0.781043  16.433427  10.287892  18.398930   # C_3
 127 1 4   0.199831  17.998791  10.350200  16.119815   # H_
 128 1 2  -0.531567  18.727652  10.350200  13.878790   # O_3
 129 1 3   0.522955  17.520612  10.350200  13.529781   # C_3
 130 1 2  -0.553554  17.171603  10.350200  12.322741   # O_3
 131 1 5  -0.316647  13.261297  10.294930  12.555000   # F_
 132 1 5  -0.417641  15.109222   9.182490  12.044114   # F_
 133 1 5  -0.422130  15.076929  11.476923  12.041423   # F_
 134 1 5  -0.377366  15.901633  11.377975  19.096326   # F_
 135 1 5  -0.305147  17.783300  10.457014  18.386509   # F_
 136 1 5  -0.370407  16.136997   9.065119  18.971710   # F_
 137 1 3   0.496388  17.520819   0.000000  17.520819   # C_3
 138 1 2  -0.635295  17.171810   0.000000  18.727859   # O_3
 139 1 2  -0.647730  18.727859   0.000000  17.171810   # O_3
 140 1 3  -0.020843  16.456818   0.000000  16.456818   # C_3
 141 1 3   0.084785  16.883867   0.000000  15.162836   # C_3
 142 1 4   0.154479  17.999826   0.000000  14.930785   # H_
 143 1 3   0.954261  16.388507  20.694190  12.674441   # C_3
 144 1 3  -0.150820  15.887971   0.000000  14.167768   # C_3
 145 1 3  -0.038062  14.593989   0.000000  14.593782   # C_3
 146 1 3   0.088678  14.167768   0.000000  15.887764   # C_3
 147 1 3  -0.152595  15.162836   0.000000  16.883867   # C_3
 148 1 3   1.039440  14.590884  20.579510  18.379678   # C_3
 149 1 4   0.149745  13.051809   0.000000  16.119815   # H_
 150 1 2  -0.701481  12.322948   0.000000  13.878790   # O_3
 151 1 3   0.509167  13.529988   0.000000  13.529781   # C_3
 152 1 2  -0.690470  13.878997   0.000000  12.322741   # O_3
 153 1 5  -0.273273  17.788889  20.678872  12.554586   # F_
 154 1 5  -0.505177  15.962285   1.117822  12.025483   # F_
 155 1 5  -0.402367  15.958766  19.527101  12.047426   # F_
 156 1 5  -0.475790  15.009860   0.964432  19.081836   # F_
 157 1 5  -0.403945  14.963698  19.486736  19.018907   # F_
 158 1 5  -0.321579  13.268542  20.698537  18.288596   # F_
 159 1 3   0.509995  17.520819  10.350200   7.170619   # C_3
 160 1 2  -0.635368  17.171810  10.350200   8.377659   # O_3
 161 1 2  -0.605483  18.727859  10.350200   6.821610   # O_3
 162 1 3  -0.034912  16.456818  10.350200   6.106618   # C_3
 163 1 3   0.075377  16.883867  10.350200   4.812636   # C_3
 164 1 4   0.192385  17.999826  10.350200   4.580585   # H_
 165 1 3   0.765432  16.388300  10.348751   2.324241   # C_3
 166 1 3  -0.028040  15.887971  10.350200   3.817568   # C_3
 167 1 3  -0.050886  14.593989  10.350200   4.243582   # C_3
 168 1 3   0.088070  14.167768  10.350200   5.537564   # C_3
 169 1 3  -0.048519  15.162836  10.350200   6.533667   # C_3
 170 1 3   0.868402  14.588814  10.227861   8.030720   # C_3
 171 1 4   0.185887  13.051809  10.350200   5.769615   # H_
 172 1 2  -0.569901  12.322948  10.350200   3.528590   # O_3
 173 1 3   0.533193  13.529988  10.350200   3.179581   # C_3
 174 1 2  -0.565610  13.878997  10.350200   1.972541   # O_3
 175 1 5  -0.317472  17.788682  10.335089   2.204386   # F_
 176 1 5  -0.429130  15.960008  11.472990   1.678802   # F_
 177 1 5  -0.425825  15.960629   9.181455   1.693293   # F_
 178 1 5  -0.438815  15.016691  11.302211   8.743642   # F_
 179 1 5  -0.453657  14.956867   9.132188   8.664152   # F_
 180 1 5  -0.370802  13.264609  10.351856   7.938603   # F_
 181 1 3   0.496821   7.170619   0.000000   7.170619   # C_3
 182 1 2  -0.603963   6.821610   0.000000   8.377659   # O_3
 183 1 2  -0.593019   8.377659   0.000000   6.821610   # O_3
 184 1 3   0.012958   6.106618   0.000000   6.106618   # C_3
 185 1 3   0.013406   6.533667   0.000000   4.812636   # C_3
 186 1 4   0.163384   7.649626   0.000000   4.580585   # H_
 187 1 3   0.596401   6.037893   0.004761   2.324034   # C_3
 188 1 3   0.011211   5.537564   0.000000   3.817568   # C_3
 189 1 3  -0.112513   4.243582   0.000000   4.243582   # C_3
 190 1 3   0.139717   3.817568   0.000000   5.537564   # C_3
 191 1 3  -0.198833   4.812636   0.000000   6.533667   # C_3
 192 1 3   1.113000   4.255381  20.648649   8.028857   # C_3
 193 1 4   0.140950   2.701609   0.000000   5.769615   # H_
 194 1 2  -0.610220   1.972748   0.000000   3.528590   # O_3
 195 1 3   0.546989   3.179581   0.000000   3.179581   # C_3
 196 1 2  -0.613314   3.528590   0.000000   1.972541   # O_3
 197 1 5  -0.225424   7.438068  20.693983   2.204386   # F_
 198 1 5  -0.429897   5.607531   1.129621   1.682322   # F_
 199 1 5  -0.337291   5.612085  19.538901   1.688532   # F_
 200 1 5  -0.512266   4.668768   1.132312   8.585284   # F_
 201 1 5  -0.452318   4.713067  19.584648   8.709279   # F_
 202 1 5  -0.483159   2.917514   0.034777   8.025131   # F_
 203 1 3   0.521191   7.170619  10.350200  17.520819   # C_3
 204 1 2  -0.516842   6.821610  10.350200  18.727859   # O_3
 205 1 2  -0.561914   8.377659  10.350200  17.171810   # O_3
 206 1 3  -0.034621   6.106618  10.350200  16.456818   # C_3
 207 1 3   0.076925   6.533667  10.350200  15.162836   # C_3
 208 1 4   0.185464   7.649626  10.350200  14.930785   # H_
 209 1 3   0.770120   6.038307  10.343783  12.674441   # C_3
 210 1 3  -0.033797   5.537564  10.350200  14.167768   # C_3
 211 1 3  -0.050638   4.243582  10.350200  14.593782   # C_3
 212 1 3   0.082802   3.817568  10.350200  15.887764   # C_3
 213 1 3  -0.036367   4.812636  10.350200  16.883867   # C_3
 214 1 3   0.833700   4.255381  10.297621  18.379057   # C_3
 215 1 4   0.182849   2.701609  10.350200  16.119815   # H_
 216 1 2  -0.656442   1.972748  10.350200  13.878790   # O_3
 217 1 3   0.522129   3.179581  10.350200  13.529781   # C_3
 218 1 2  -0.643161   3.528590  10.350200  12.322741   # O_3
 219 1 5  -0.314622   7.438689  10.328672  12.554586   # F_
 220 1 5  -0.430566   5.612292  11.468022  12.025276   # F_
 221 1 5  -0.414785   5.608566   9.176901  12.047426   # F_
 222 1 5  -0.391577   4.668561  11.481270  18.936519   # F_
 223 1 5  -0.405971   4.712653   9.233206  19.058858   # F_
 224 1 5  -0.353038   2.917307  10.384563  18.375124   # F_
 225 1 3   0.507278  17.520819   3.179581   0.000000   # C_3
 226 1 2  -0.648700  18.727859   3.528590   0.000000   # O_3
 227 1 2  -0.688518  17.171810   1.972541   0.000000   # O_3
 228 1 3  -0.042882  16.456818   4.243582   0.000000   # C_3
 229 1 3   0.091600  15.162836   3.816533   0.000000   # C_3
 230 1 4   0.134132  14.930785   2.700574   0.000000   # H_
 231 1 3   0.962681  12.676304   4.311686  20.690878   # C_3
 232 1 3  -0.167154  14.167768   4.812636   0.000000   # C_3
 233 1 3  -0.024949  14.593782   6.106618   0.000000   # C_3
 234 1 3   0.076712  15.887764   6.532632   0.000000   # C_3
 235 1 3  -0.129854  16.883867   5.537564   0.000000   # C_3
 236 1 3   0.961720  18.381334   6.104755  20.628777   # C_3
 237 1 4   0.152218  16.119815   7.648591   0.000000   # H_
 238 1 2  -0.610504  13.878790   8.377452   0.000000   # O_3
 239 1 3   0.512528  13.529781   7.170619   0.000000   # C_3
 240 1 2  -0.608002  12.322741   6.821610   0.000000   # O_3
 241 1 5  -0.304143  12.555000   2.911097  20.649891   # F_
 242 1 5  -0.412179  12.041423   4.757573  19.536210   # F_
 243 1 5  -0.506527  12.043700   4.727971   1.130242   # F_
 244 1 5  -0.445985  19.044782   5.692403   1.085943   # F_
 245 1 5  -0.280300  18.315714   7.480297  20.649270   # F_
 246 1 5  -0.381626  18.978334   5.700476  19.462516   # F_
 247 1 3   0.520345  17.520819  13.529781  10.350200   # C_3
 248 1 2  -0.614365  18.727859  13.878790  10.350200   # O_3
 249 1 2  -0.643615  17.171810  12.322741  10.350200   # O_3
 250 1 3  -0.053138  16.456818  14.593782  10.350200   # C_3
 251 1 3   0.084281  15.162836  14.166733  10.350200   # C_3
 252 1 4   0.179284  14.930785  13.050774  10.350200   # H_
 253 1 3   0.769941  12.676511  14.661886  10.337366   # C_3
 254 1 3  -0.038860  14.167768  15.162629  10.350200   # C_3
 255 1 3  -0.032121  14.593782  16.456611  10.350200   # C_3
 256 1 3   0.076840  15.887764  16.882832  10.350200   # C_3
 257 1 3  -0.010287  16.883867  15.887764  10.350200   # C_3
 258 1 3   0.781719  18.385267  16.451022  10.275886   # C_3
 259 1 4   0.201807  16.119815  17.998791  10.350200   # H_
 260 1 2  -0.529535  13.878790  18.727652  10.350200   # O_3
 261 1 3   0.522862  13.529781  17.520612  10.350200   # C_3
 262 1 2  -0.553288  12.322741  17.171603  10.350200   # O_3
 263 1 5  -0.317219  12.555000  13.261297  10.294723   # F_
 264 1 5  -0.417695  12.043907  15.109222   9.182490   # F_
 265 1 5  -0.421980  12.041216  15.076722  11.476923   # F_
 266 1 5  -0.371647  19.064447  16.001616  11.411510   # F_
 267 1 5  -0.303815  18.325857  17.820353  10.344404   # F_
 268 1 5  -0.382795  18.972538  16.086488   9.088718   # F_
 269 1 3   0.535559   7.170619   3.179581  10.350200   # C_3
 270 1 2  -0.564874   8.377659   3.528590  10.350200   # O_3
 271 1 2  -0.577638   6.821610   1.972541  10.350200   # O_3
 272 1 3  -0.057264   6.106618   4.243582  10.350200   # C_3
 273 1 3   0.087396   4.812636   3.816533  10.350200   # C_3
 274 1 4   0.173588   4.580585   2.700574  10.350200   # H_
 275 1 3   0.767640   2.325897   4.311686  10.335710   # C_3
 276 1 3  -0.040586   3.817568   4.812636  10.350200   # C_3
 277 1 3  -0.040657   4.243582   6.106618  10.350200   # C_3
 278 1 3   0.073887   5.537564   6.532632  10.350200   # C_3
 279 1 3  -0.016076   6.533667   5.537564  10.350200   # C_3
 280 1 3   0.779831   8.043554   6.091093  10.279612   # C_3
 281 1 4   0.189620   5.769615   7.648591  10.350200   # H_
 282 1 2  -0.570917   3.528590   8.377452  10.350200   # O_3
 283 1 3   0.527816   3.179581   7.170619  10.350200   # C_3
 284 1 2  -0.555203   1.972541   6.821610  10.350200   # O_3
 285 1 5  -0.348630   2.204179   2.911097  10.292653   # F_
 286 1 5  -0.431356   1.695156   4.759850   9.179799   # F_
 287 1 5  -0.440244   1.687704   4.726108  11.473611   # F_
 288 1 5  -0.416580   8.740537   5.584347  11.381494   # F_
 289 1 5  -0.337493   8.009192   7.448211  10.419960   # F_
 290 1 5  -0.417302   8.619854   5.779552   9.065947   # F_
 291 1 3   0.519109   7.170619  13.529781   0.000000   # C_3
 292 1 2  -0.612864   8.377659  13.878790   0.000000   # O_3
 293 1 2  -0.612317   6.821610  12.322741   0.000000   # O_3
 294 1 3  -0.046055   6.106618  14.593782   0.000000   # C_3
 295 1 3   0.094375   4.812636  14.166733   0.000000   # C_3
 296 1 4   0.136264   4.580585  13.050774   0.000000   # H_
 297 1 3   0.960783   2.325690  14.662093  20.694811   # C_3
 298 1 3  -0.166958   3.817568  15.162629   0.000000   # C_3
 299 1 3  -0.021647   4.243582  16.456611   0.000000   # C_3
 300 1 3   0.075608   5.537564  16.882832   0.000000   # C_3
 301 1 3  -0.130672   6.533667  15.887764   0.000000   # C_3
 302 1 3   0.960360   8.034653  16.450815  20.625465   # C_3
 303 1 4   0.156408   5.769615  17.998791   0.000000   # H_
 304 1 2  -0.644178   3.528590  18.727652   0.000000   # O_3
 305 1 3   0.501103   3.179581  17.520612   0.000000   # C_3
 306 1 2  -0.684654   1.972541  17.171603   0.000000   # O_3
 307 1 5  -0.303617   2.203972  13.261297  20.655894   # F_
 308 1 5  -0.426412   1.688325  15.105703  19.538694   # F_
 309 1 5  -0.517017   1.692879  15.079827   1.131898   # F_
 310 1 5  -0.488395   8.714040  16.004100   1.060895   # F_
 311 1 5  -0.292031   7.975243  17.820560  20.691706   # F_
 312 1 5  -0.410282   8.622131  16.084625  19.437883   # F_
 313 1 3   0.492629  17.520819  17.520819   0.000000   # C_3
 314 1 2  -0.560967  18.727859  17.171810   0.000000   # O_3
 315 1 2  -0.558773  17.171810  18.727859   0.000000   # O_3
 316 1 3   0.019550  16.456818  16.456818   0.000000   # C_3
 317 1 3   0.031128  15.162836  16.883867   0.000000   # C_3
 318 1 4   0.181740  14.930785  17.999826   0.000000   # H_
 319 1 3   0.679848  12.674234  16.388093   0.013248   # C_3
 320 1 3  -0.003307  14.167768  15.887971   0.000000   # C_3
 321 1 3  -0.105175  14.593782  14.593989   0.000000   # C_3
 322 1 3   0.134837  15.887764  14.167768   0.000000   # C_3
 323 1 3  -0.190080  16.883867  15.162836   0.000000   # C_3
 324 1 3   1.109040  18.379678  14.605581  20.651547   # C_3
 325 1 4   0.146825  16.119815  13.051809   0.000000   # H_
 326 1 2  -0.689400  13.878790  12.322948   0.000000   # O_3
 327 1 3   0.531972  13.529781  13.529988   0.000000   # C_3
 328 1 2  -0.685472  12.322741  13.878997   0.000000   # O_3
 329 1 5  -0.332238  12.555207  17.788268   0.005589   # F_
 330 1 5  -0.417134  12.038939  15.954005   1.138522   # F_
 331 1 5  -0.329252  12.032522  15.966219  19.547595   # F_
 332 1 5  -0.473282  18.933828  15.026627   1.135003   # F_
 333 1 5  -0.409557  19.059272  15.064302  19.585890   # F_
 334 1 5  -0.454906  18.379885  13.265023   0.043264   # F_
 335 1 3   0.517311  17.520819   7.170619  10.350200   # C_3
 336 1 2  -0.511925  18.727859   6.821610  10.350200   # O_3
 337 1 2  -0.563052  17.171810   8.377659  10.350200   # O_3
 338 1 3  -0.032023  16.456818   6.106618  10.350200   # C_3
 339 1 3   0.075668  15.162836   6.533667  10.350200   # C_3
 340 1 4   0.186473  14.930785   7.649626  10.350200   # H_
 341 1 3   0.769972  12.674441   6.038307  10.345232   # C_3
 342 1 3  -0.031898  14.167768   5.537564  10.350200   # C_3
 343 1 3  -0.052636  14.593782   4.243582  10.350200   # C_3
 344 1 3   0.086955  15.887764   3.817568  10.350200   # C_3
 345 1 3  -0.043699  16.883867   4.812636  10.350200   # C_3
 346 1 3   0.850407  18.376366   4.254967  10.277335   # C_3
 347 1 4   0.183158  16.119815   2.701609  10.350200   # H_
 348 1 2  -0.657102  13.878790   1.972748  10.350200   # O_3
 349 1 3   0.523124  13.529781   3.179581  10.350200   # C_3
 350 1 2  -0.643325  12.322741   3.528590  10.350200   # O_3
 351 1 5  -0.314163  12.554586   7.438689  10.331156   # F_
 352 1 5  -0.430051  12.026518   5.611464  11.469678   # F_
 353 1 5  -0.414636  12.046391   5.609394   9.178350   # F_
 354 1 5  -0.396441  18.958875   4.636683  11.452496   # F_
 355 1 5  -0.413545  19.056995   4.694644   9.213334   # F_
 356 1 5  -0.363882  18.344694   2.929935  10.350614   # F_
 357 1 3   0.509389   7.170619  17.520819  10.350200   # C_3
 358 1 2  -0.635430   8.377659  17.171810  10.350200   # O_3
 359 1 2  -0.603714   6.821610  18.727859  10.350200   # O_3
 360 1 3  -0.034816   6.106618  16.456818  10.350200   # C_3
 361 1 3   0.074359   4.812636  16.883867  10.350200   # C_3
 362 1 4   0.192669   4.580585  17.999826  10.350200   # H_
 363 1 3   0.766601   2.324241  16.388507  10.343576   # C_3
 364 1 3  -0.029075   3.817568  15.887971  10.350200   # C_3
 365 1 3  -0.055349   4.243582  14.593989  10.350200   # C_3
 366 1 3   0.086787   5.537564  14.167768  10.350200   # C_3
 367 1 3  -0.050083   6.533667  15.162836  10.350200   # C_3
 368 1 3   0.868141   8.029478  14.590470  10.227861   # C_3
 369 1 4   0.185907   5.769615  13.051809  10.350200   # H_
 370 1 2  -0.651062   3.528590  12.322948  10.350200   # O_3
 371 1 3   0.525979   3.179581  13.529988  10.350200   # C_3
 372 1 2  -0.659533   1.972541  13.878997  10.350200   # O_3
 373 1 5  -0.315601   2.203972  17.788889  10.327637   # F_
 374 1 5  -0.441467   1.674455  15.962906  11.467608   # F_
 375 1 5  -0.418999   1.697433  15.957938   9.176694   # F_
 376 1 5  -0.438968   8.733706  15.009653  11.311734   # F_
 377 1 5  -0.453514   8.667671  14.963284   9.134466   # F_
 378 1 5  -0.371957   7.938189  13.267714  10.347302   # F_
 379 1 3   0.490520   7.170619   7.170619   0.000000   # C_3
 380 1 2  -0.688466   8.377659   6.821610   0.000000   # O_3
 381 1 2  -0.687136   6.821610   8.377659   0.000000   # O_3
 382 1 3   0.001932   6.106618   6.106618   0.000000   # C_3
 383 1 3   0.014915   4.812636   6.533667   0.000000   # C_3
 384 1 4   0.162281   4.580585   7.649626   0.000000   # H_
 385 1 3   0.591680   2.324034   6.037893   0.004140   # C_3
 386 1 3   0.010061   3.817568   5.537564   0.000000   # C_3
 387 1 3  -0.111578   4.243582   4.243582   0.000000   # C_3
 388 1 3   0.129144   5.537564   3.817568   0.000000   # C_3
 389 1 3  -0.193471   6.533667   4.812636   0.000000   # C_3
 390 1 3   1.062020   8.029892   4.239856  20.578475   # C_3
 391 1 4   0.130705   5.769615   2.701609   0.000000   # H_
 392 1 2  -0.624370   3.528590   1.972748   0.000000   # O_3
 393 1 3   0.549436   3.179581   3.179581   0.000000   # C_3
 394 1 2  -0.614258   1.972541   3.528590   0.000000   # O_3
 395 1 5  -0.210508   2.204386   7.438275  20.692327   # F_
 396 1 5  -0.423963   1.681907   5.607945   1.128793   # F_
 397 1 5  -0.327751   1.689153   5.611464  19.538073   # F_
 398 1 5  -0.527831   8.736397   4.662144   0.959050   # F_
 399 1 5  -0.455458   8.666843   4.611428  19.484666   # F_
 400 1 5  -0.357227   7.938603   2.916893  20.698744   # F_
 401 1 3   0.512529   0.000000  17.520819   3.179581   # C_3
 402 1 2  -0.557251   0.000000  18.727859   3.528590   # O_3
 403 1 2  -0.609136   0.000000  17.171810   1.972541   # O_3
 404 1 3  -0.032919   0.000000  16.456818   4.243582   # C_3
 405 1 3   0.090727   0.000000  15.162836   3.816533   # C_3
 406 1 4   0.139195   0.000000  14.930785   2.700574   # H_
 407 1 3   0.948060  20.694397  12.675890   4.311686   # C_3
 408 1 3  -0.152700   0.000000  14.167768   4.812636   # C_3
 409 1 3  -0.035520   0.000000  14.593782   6.106618   # C_3
 410 1 3   0.090399   0.000000  15.887764   6.532632   # C_3
 411 1 3  -0.133578   0.000000  16.883867   5.537564   # C_3
 412 1 3   1.025770  20.625672  18.389821   6.095440   # C_3
 413 1 4   0.163052   0.000000  16.119815   7.648591   # H_
 414 1 2  -0.696133   0.000000  13.878790   8.377452   # O_3
 415 1 3   0.510720   0.000000  13.529781   7.170619   # C_3
 416 1 2  -0.683020   0.000000  12.322741   6.821610   # O_3
 417 1 5  -0.300765  20.655480  12.554172   2.910890   # F_
 418 1 5  -0.416404  19.538487  12.038939   4.755710   # F_
 419 1 5  -0.501294   1.131691  12.043079   4.729420   # F_
 420 1 5  -0.445810   1.038539  19.082871   5.610636   # F_
 421 1 5  -0.416257   0.038917  18.343038   7.457940   # F_
 422 1 5  -0.374370  19.420494  18.969640   5.765682   # F_
 423 1 3   0.513973   0.000000   7.170619  13.529781   # C_3
 424 1 2  -0.609129   0.000000   8.377659  13.878790   # O_3
 425 1 2  -0.598537   0.000000   6.821610  12.322741   # O_3
 426 1 3  -0.039661   0.000000   6.106618  14.593782   # C_3
 427 1 3   0.088822   0.000000   4.812636  14.166733   # C_3
 428 1 4   0.140592   0.000000   4.580585  13.050774   # H_
 429 1 3   0.943705  20.697295   2.325897  14.661886   # C_3
 430 1 3  -0.151911   0.000000   3.817568  15.162629   # C_3
 431 1 3  -0.029162   0.000000   4.243582  16.456611   # C_3
 432 1 3   0.089262   0.000000   5.537564  16.882832   # C_3
 433 1 3  -0.134356   0.000000   6.533667  15.887764   # C_3
 434 1 3   1.024360  20.629812   8.044589  16.439844   # C_3
 435 1 4   0.167426   0.000000   5.769615  17.998791   # H_
 436 1 2  -0.639793   0.000000   3.528590  18.727652   # O_3
 437 1 3   0.507350   0.000000   3.179581  17.520612   # C_3
 438 1 2  -0.690616   0.000000   1.972541  17.171603   # O_3
 439 1 5  -0.307787  20.658999   2.204593  13.261090   # F_
 440 1 5  -0.428267  19.542006   1.686876  15.105082   # F_
 441 1 5  -0.509753   1.136038   1.696605  15.080655   # F_
 442 1 5  -0.491045   1.028396   8.742400  15.928337   # F_
 443 1 5  -0.429718   0.075142   8.013953  17.795720   # F_
 444 1 5  -0.415664  19.414491   8.619854  16.131201   # F_
 445 1 3   0.520005  10.350200  17.520819  13.529781   # C_3
 446 1 2  -0.612668  10.350200  18.727859  13.878790   # O_3
 447 1 2  -0.643684  10.350200  17.171810  12.322741   # O_3
 448 1 3  -0.053662  10.350200  16.456818  14.593782   # C_3
 449 1 3   0.083863  10.350200  15.162836  14.166733   # C_3
 450 1 4   0.179070  10.350200  14.930785  13.050774   # H_
 451 1 3   0.770750  10.330121  12.676304  14.661886   # C_3
 452 1 3  -0.040217  10.350200  14.167768  15.162629   # C_3
 453 1 3  -0.035393  10.350200  14.593782  16.456611   # C_3
 454 1 3   0.074593  10.350200  15.887764  16.882832   # C_3
 455 1 3  -0.010650  10.350200  16.883867  15.887764   # C_3
 456 1 3   0.780422  10.275679  18.385267  16.450815   # C_3
 457 1 4   0.200739  10.350200  16.119815  17.998791   # H_
 458 1 2  -0.603925  10.350200  13.878790  18.727652   # O_3
 459 1 3   0.512982  10.350200  13.529781  17.520612   # C_3
 460 1 2  -0.630020  10.350200  12.322741  17.171603   # O_3
 461 1 5  -0.317547  10.284373  12.554379  13.261297   # F_
 462 1 5  -0.417640   9.174831  12.049289  15.112327   # F_
 463 1 5  -0.429326  11.468850  12.034799  15.073410   # F_
 464 1 5  -0.369691  11.411303  19.064861  16.002030   # F_
 465 1 5  -0.306715  10.343990  18.326064  17.820146   # F_
 466 1 5  -0.387080   9.088097  18.972124  16.086281   # F_
 467 1 3   0.524961  10.350200   7.170619   3.179581   # C_3
 468 1 2  -0.648017  10.350200   8.377659   3.528590   # O_3
 469 1 2  -0.659812  10.350200   6.821610   1.972541   # O_3
 470 1 3  -0.059060  10.350200   6.106618   4.243582   # C_3
 471 1 3   0.082480  10.350200   4.812636   3.816533   # C_3
 472 1 4   0.172187  10.350200   4.580585   2.700574   # H_
 473 1 3   0.766889  10.337780   2.325897   4.311686   # C_3
 474 1 3  -0.041404  10.350200   3.817568   4.812636   # C_3
 475 1 3  -0.041319  10.350200   4.243582   6.106618   # C_3
 476 1 3   0.074191  10.350200   5.537564   6.532632   # C_3
 477 1 3  -0.019083  10.350200   6.533667   5.537564   # C_3
 478 1 3   0.781975  10.280440   8.030720   6.105169   # C_3
 479 1 4   0.190511  10.350200   5.769615   7.648591   # H_
 480 1 2  -0.570956  10.350200   3.528590   8.377452   # O_3
 481 1 3   0.527845  10.350200   3.179581   7.170619   # C_3
 482 1 2  -0.555598  10.350200   1.972541   6.821610   # O_3
 483 1 5  -0.356354  10.295758   2.203972   2.911097   # F_
 484 1 5  -0.434224   9.182283   1.693086   4.758815   # F_
 485 1 5  -0.441082  11.475888   1.689153   4.726936   # F_
 486 1 5  -0.411925  11.442974   8.690442   5.702546   # F_
 487 1 5  -0.335122  10.290790   7.963651   7.481332   # F_