 (written by mofun)

728 atoms
0 bonds
0 angles
0 dihedrals
0 impropers

5 atom types
   0.000000  26.896000 xlo xhi
   0.000000  26.896000 ylo yhi
   0.000000  26.896000 zlo zhi

Masses

 1 91.2240   # Zr3+4
 2 15.9994   # O_3
 3 12.0107   # C_3
 4 1.0079   # H_
 5 14.0067   # N_3

Pair Coeffs

 1   0.069000   2.783168 # Zr3+4
 2   0.060000   3.118146 # O_3
 3   0.105000   3.430851 # C_3
 4   0.044000   2.571134 # H_
 5   0.069000   3.260689 # N_3

Atoms

 1 1 1   3.184710   2.475508   0.000000   0.000000   # Zr3+4
 2 1 1   3.183800  24.420492   0.000000   0.000000   # Zr3+4
 3 1 1   3.183970   0.000000   2.475508   0.000000   # Zr3+4
 4 1 1   3.183120   0.000000  24.420492   0.000000   # Zr3+4
 5 1 1   3.184640   0.000000   0.000000   2.475508   # Zr3+4
 6 1 1   3.183730   0.000000   0.000000  24.420492   # Zr3+4
 7 1 1   3.215150   2.475508  13.448000  13.448000   # Zr3+4
 8 1 1   3.213810  24.420492  13.448000  13.448000   # Zr3+4
 9 1 1   3.199160   0.000000  15.923508  13.448000   # Zr3+4
 10 1 1   3.199070   0.000000  10.972492  13.448000   # Zr3+4
 11 1 1   3.199220   0.000000  13.448000  15.923508   # Zr3+4
 12 1 1   3.199100   0.000000  13.448000  10.972492   # Zr3+4
 13 1 1   3.199620  15.923508   0.000000  13.448000   # Zr3+4
 14 1 1   3.199510  10.972492   0.000000  13.448000   # Zr3+4
 15 1 1   3.214960  13.448000   2.475508  13.448000   # Zr3+4
 16 1 1   3.213670  13.448000  24.420492  13.448000   # Zr3+4
 17 1 1   3.199780  13.448000   0.000000  15.923508   # Zr3+4
 18 1 1   3.199680  13.448000   0.000000  10.972492   # Zr3+4
 19 1 1   3.199050  15.923508  13.448000   0.000000   # Zr3+4
 20 1 1   3.198950  10.972492  13.448000   0.000000   # Zr3+4
 21 1 1   3.199040  13.448000  15.923508   0.000000   # Zr3+4
 22 1 1   3.198940  13.448000  10.972492   0.000000   # Zr3+4
 23 1 1   3.214740  13.448000  13.448000   2.475508   # Zr3+4
 24 1 1   3.213400  13.448000  13.448000  24.420492   # Zr3+4
 25 1 2  -1.341050   1.221078   1.221078   1.221078   # O_3
 26 1 2  -1.125210  25.674922  25.674922   1.221078   # O_3
 27 1 2  -1.120780  25.674922   1.221078  25.674922   # O_3
 28 1 2  -1.125650   1.221078  25.674922  25.674922   # O_3
 29 1 2  -1.229360   1.221078   1.221078  25.674922   # O_3
 30 1 2  -1.020660  25.674922  25.674922  25.674922   # O_3
 31 1 2  -1.233800   1.221078  25.674922   1.221078   # O_3
 32 1 2  -1.228910  25.674922   1.221078   1.221078   # O_3
 33 1 2  -1.278200   1.221078  14.669078  14.669078   # O_3
 34 1 2  -1.166590  25.674922  12.226922  14.669078   # O_3
 35 1 2  -1.166650  25.674922  14.669078  12.226922   # O_3
 36 1 2  -1.278600   1.221078  12.226922  12.226922   # O_3
 37 1 2  -1.278420   1.221078  14.669078  12.226922   # O_3
 38 1 2  -1.166580  25.674922  12.226922  12.226922   # O_3
 39 1 2  -1.278390   1.221078  12.226922  14.669078   # O_3
 40 1 2  -1.166680  25.674922  14.669078  14.669078   # O_3
 41 1 2  -1.276690  14.669078   1.221078  14.669078   # O_3
 42 1 2  -1.170070  12.226922  25.674922  14.669078   # O_3
 43 1 2  -1.277060  12.226922   1.221078  12.226922   # O_3
 44 1 2  -1.170070  14.669078  25.674922  12.226922   # O_3
 45 1 2  -1.276880  14.669078   1.221078  12.226922   # O_3
 46 1 2  -1.170070  12.226922  25.674922  12.226922   # O_3
 47 1 2  -1.170190  14.669078  25.674922  14.669078   # O_3
 48 1 2  -1.276890  12.226922   1.221078  14.669078   # O_3
 49 1 2  -1.277920  14.669078  14.669078   1.221078   # O_3
 50 1 2  -1.278360  12.226922  12.226922   1.221078   # O_3
 51 1 2  -1.166830  12.226922  14.669078  25.674922   # O_3
 52 1 2  -1.166860  14.669078  12.226922  25.674922   # O_3
 53 1 2  -1.167020  14.669078  14.669078  25.674922   # O_3
 54 1 2  -1.166810  12.226922  12.226922  25.674922   # O_3
 55 1 2  -1.278160  14.669078  12.226922   1.221078   # O_3
 56 1 2  -1.278170  12.226922  14.669078   1.221078   # O_3
 57 1 2  -0.691763   3.566410   0.000000   1.933822   # O_3
 58 1 3   0.518863   3.152211   0.000000   3.152211   # C_3
 59 1 2  -0.691864   1.933822   0.000000   3.566410   # O_3
 60 1 3  -0.255481   4.209224   0.000000   4.209224   # C_3
 61 1 3   0.163280   5.535197   0.000000   3.891851   # C_3
 62 1 3   0.160060   3.891851   0.000000   5.535197   # C_3
 63 1 3  -0.232967   6.508832   0.000000   4.827832   # C_3
 64 1 4  -0.036907   5.779950   0.000000   2.996214   # H_
 65 1 3  -0.227518   4.827832   0.000000   6.508832   # C_3
 66 1 4  -0.035862   2.996214   0.000000   5.779950   # H_
 67 1 3   0.132014   6.204907   0.000000   6.204907   # C_3
 68 1 3  -0.066102   7.243093   0.000000   7.243093   # C_3
 69 1 4   0.100932   7.399090   0.000000   4.558872   # H_
 70 1 3   0.045595   8.620168   0.000000   6.939168   # C_3
 71 1 4   0.084768   4.558872   0.000000   7.399090   # H_
 72 1 3  -0.061822   6.939168   0.000000   8.620168   # C_3
 73 1 3  -0.048390   9.556149   0.000000   7.912803   # C_3
 74 1 5  -0.272495   9.186329   0.057288   5.543535   # N_3
 75 1 3   0.006251   7.912803   0.000000   9.556149   # C_3
 76 1 4   0.025451   6.048910   0.000000   8.889128   # H_
 77 1 3  -0.119880   9.238776   0.000000   9.238776   # C_3
 78 1 3   0.464589  10.295789   0.000000  10.295789   # C_3
 79 1 4   0.034679  10.451786   0.000000   7.668050   # H_
 80 1 4   0.019070   7.668050   0.000000  10.451786   # H_
 81 1 2  -0.673787  11.514178   0.000000   9.881590   # O_3
 82 1 2  -0.674433   9.881590   0.000000  11.514178   # O_3
 83 1 4   0.062504   9.790682   0.908278   5.416854   # H_
 84 1 4   0.205118   9.822150  26.138340   5.402331   # H_
 85 1 2  -0.681396  23.329590   0.000000   1.933822   # O_3
 86 1 3   0.502904  23.743789   0.000000   3.152211   # C_3
 87 1 2  -0.604091  24.962178   0.000000   3.566410   # O_3
 88 1 3  -0.212767  22.686776   0.000000   4.209224   # C_3
 89 1 3   0.140241  21.360803   0.000000   3.891851   # C_3
 90 1 3   0.137117  23.004149   0.000000   5.535197   # C_3
 91 1 3  -0.206388  20.387168   0.000000   4.827832   # C_3
 92 1 4  -0.025366  21.116050   0.000000   2.996214   # H_
 93 1 3  -0.192299  22.068168   0.000000   6.508832   # C_3
 94 1 4   0.016292  23.899786   0.000000   5.779950   # H_
 95 1 3   0.119974  20.691093   0.000000   6.204907   # C_3
 96 1 3  -0.049029  19.652907   0.000000   7.243093   # C_3
 97 1 4   0.094346  19.496910   0.000000   4.558872   # H_
 98 1 3   0.039802  18.275832   0.000000   6.939168   # C_3
 99 1 4   0.098036  22.337128   0.000000   7.399090   # H_
 100 1 3  -0.069973  19.956832   0.000000   8.620168   # C_3
 101 1 3  -0.039950  17.339851   0.000000   7.912803   # C_3
 102 1 5  -0.270499  17.707520   0.087412   5.530624   # N_3
 103 1 3   0.018618  18.983197   0.000000   9.556149   # C_3
 104 1 4   0.045052  20.847090   0.000000   8.889128   # H_
 105 1 3  -0.123851  17.657224   0.000000   9.238776   # C_3
 106 1 3   0.467139  16.600211   0.000000  10.295789   # C_3
 107 1 4   0.032575  16.444214   0.000000   7.668050   # H_
 108 1 4   0.023516  19.227950   0.000000  10.451786   # H_
 109 1 2  -0.673737  15.381822   0.000000   9.881590   # O_3
 110 1 2  -0.672156  17.014410   0.000000  11.514178   # O_3
 111 1 4   0.066485  17.188158   0.993807   5.403675   # H_
 112 1 4   0.205746  17.028664  26.204235   5.370593   # H_
 113 1 2  -0.595358  23.329590   0.000000  24.962178   # O_3
 114 1 3   0.487765  23.743789   0.000000  23.743789   # C_3
 115 1 2  -0.595240  24.962178   0.000000  23.329590   # O_3
 116 1 3  -0.172019  22.686776   0.000000  22.686776   # C_3
 117 1 3   0.118841  21.360803   0.000000  23.004149   # C_3
 118 1 3   0.116136  23.004149   0.000000  21.360803   # C_3
 119 1 3  -0.172911  20.387168   0.000000  22.068168   # C_3
 120 1 4   0.025882  21.116050   0.000000  23.899786   # H_
 121 1 3  -0.168554  22.068168   0.000000  20.387168   # C_3
 122 1 4   0.026676  23.899786   0.000000  21.116050   # H_
 123 1 3   0.110847  20.691093   0.000000  20.691093   # C_3
 124 1 3  -0.039807  19.652907   0.000000  19.652907   # C_3
 125 1 4   0.106091  19.496910   0.000000  22.337128   # H_
 126 1 3   0.045383  18.275832   0.000000  19.956832   # C_3
 127 1 4   0.092330  22.337128   0.000000  19.496910   # H_
 128 1 3  -0.072051  19.956832   0.000000  18.275832   # C_3
 129 1 3  -0.040294  17.339851   0.000000  18.983197   # C_3
 130 1 5  -0.265982  17.708326   0.100591  21.364838   # N_3
 131 1 3   0.021145  18.983197   0.000000  17.339851   # C_3
 132 1 4   0.047392  20.847090   0.000000  18.006872   # H_
 133 1 3  -0.121907  17.657224   0.000000  17.657224   # C_3
 134 1 3   0.467281  16.600211   0.000000  16.600211   # C_3
 135 1 4   0.038206  16.444214   0.000000  19.227950   # H_
 136 1 4   0.022569  19.227950   0.000000  16.444214   # H_
 137 1 2  -0.671281  15.381822   0.000000  17.014410   # O_3
 138 1 2  -0.671941  17.014410   0.000000  15.381822   # O_3
 139 1 4   0.087756  17.194344   1.011021  21.485601   # H_
 140 1 4   0.226060  17.024092  26.223331  21.530786   # H_
 141 1 2  -0.604236   3.566410   0.000000  24.962178   # O_3
 142 1 3   0.503158   3.152211   0.000000  23.743789   # C_3
 143 1 2  -0.681537   1.933822   0.000000  23.329590   # O_3
 144 1 3  -0.213228   4.209224   0.000000  22.686776   # C_3
 145 1 3   0.140833   5.535197   0.000000  23.004149   # C_3
 146 1 3   0.138024   3.891851   0.000000  21.360803   # C_3
 147 1 3  -0.197998   6.508832   0.000000  22.068168   # C_3
 148 1 4   0.015281   5.779950   0.000000  23.899786   # H_
 149 1 3  -0.202345   4.827832   0.000000  20.387168   # C_3
 150 1 4  -0.024571   2.996214   0.000000  21.116050   # H_
 151 1 3   0.121806   6.204907   0.000000  20.691093   # C_3
 152 1 3  -0.054589   7.243093   0.000000  19.652907   # C_3
 153 1 4   0.112575   7.399090   0.000000  22.337128   # H_
 154 1 3   0.048164   8.620168   0.000000  19.956832   # C_3
 155 1 4   0.078963   4.558872   0.000000  19.496910   # H_
 156 1 3  -0.065022   6.939168   0.000000  18.275832   # C_3
 157 1 3  -0.045935   9.556149   0.000000  18.983197   # C_3
 158 1 5  -0.267845   9.188480   0.089833  21.366989   # N_3
 159 1 3   0.010661   7.912803   0.000000  17.339851   # C_3
 160 1 4   0.029114   6.048910   0.000000  18.006872   # H_
 161 1 3  -0.119053   9.238776   0.000000  17.657224   # C_3
 162 1 3   0.465377  10.295789   0.000000  16.600211   # C_3
 163 1 4   0.039409  10.451786   0.000000  19.227950   # H_
 164 1 4   0.018915   7.668050   0.000000  16.444214   # H_
 165 1 2  -0.671387  11.514178   0.000000  17.014410   # O_3
 166 1 2  -0.673863   9.881590   0.000000  15.381822   # O_3
 167 1 4   0.086795   9.691167   1.004835  21.495283   # H_
 168 1 4   0.225490   9.876211  26.213380  21.528096   # H_
 169 1 2  -0.691858   1.933822   3.566410   0.000000   # O_3
 170 1 3   0.508828   3.152211   3.152211   0.000000   # C_3
 171 1 2  -0.691015   3.566410   1.933822   0.000000   # O_3
 172 1 3  -0.228849   4.209224   4.209224   0.000000   # C_3
 173 1 3   0.123930   3.891851   5.535197   0.000000   # C_3
 174 1 3   0.124639   5.535197   3.891851   0.000000   # C_3
 175 1 3  -0.185406   4.827832   6.508832   0.000000   # C_3
 176 1 4  -0.024893   2.996214   5.779950   0.000000   # H_
 177 1 3  -0.185559   6.508832   4.827832   0.000000   # C_3
 178 1 4  -0.024119   5.779950   2.996214   0.000000   # H_
 179 1 3   0.076371   6.204907   6.204907   0.000000   # C_3
 180 1 3   0.001680   7.243093   7.243093   0.000000   # C_3
 181 1 4   0.065175   4.558872   7.399090   0.000000   # H_
 182 1 3  -0.084307   6.939168   8.620168   0.000000   # C_3
 183 1 4   0.068516   7.399090   4.558872   0.000000   # H_
 184 1 3  -0.122159   8.620168   6.939168   0.000000   # C_3
 185 1 3   0.040747   7.912803   9.556149   0.000000   # C_3
 186 1 5  -0.015480   5.526321   9.186867  26.785457   # N_3
 187 1 3   0.063858   9.556149   7.912803   0.000000   # C_3
 188 1 4   0.046035   8.889128   6.048910   0.000000   # H_
 189 1 3  -0.175342   9.238776   9.238776   0.000000   # C_3
 190 1 3   0.483763  10.295789  10.295789   0.000000   # C_3
 191 1 4   0.003480   7.668050  10.451786   0.000000   # H_
 192 1 4  -0.001511  10.451786   7.668050   0.000000   # H_
 193 1 2  -0.680964   9.881590  11.514178   0.000000   # O_3
 194 1 2  -0.680886  11.514178   9.881590   0.000000   # O_3
 195 1 4   0.122717   5.405558   9.643023  25.846787   # H_
 196 1 4  -0.025042   5.357952   9.902569   0.637973   # H_
 197 1 2  -0.681901   1.933822  23.329590   0.000000   # O_3
 198 1 3   0.493844   3.152211  23.743789   0.000000   # C_3
 199 1 2  -0.607051   3.566410  24.962178   0.000000   # O_3
 200 1 3  -0.188540   4.209224  22.686776   0.000000   # C_3
 201 1 3   0.102861   3.891851  21.360803   0.000000   # C_3
 202 1 3   0.103770   5.535197  23.004149   0.000000   # C_3
 203 1 3  -0.160874   4.827832  20.387168   0.000000   # C_3
 204 1 4  -0.014034   2.996214  21.116050   0.000000   # H_
 205 1 3  -0.152753   6.508832  22.068168   0.000000   # C_3
 206 1 4   0.025688   5.779950  23.899786   0.000000   # H_
 207 1 3   0.066419   6.204907  20.691093   0.000000   # C_3
 208 1 3   0.016511   7.243093  19.652907   0.000000   # C_3
 209 1 4   0.059767   4.558872  19.496910   0.000000   # H_
 210 1 3  -0.086466   6.939168  18.275832   0.000000   # C_3
 211 1 4   0.082034   7.399090  22.337128   0.000000   # H_
 212 1 3  -0.128490   8.620168  19.956832   0.000000   # C_3
 213 1 3   0.046171   7.912803  17.339851   0.000000   # C_3
 214 1 5  -0.014697   5.535197  17.708057  26.816926   # N_3
 215 1 3   0.074329   9.556149  18.983197   0.000000   # C_3
 216 1 4   0.064581   8.889128  20.847090   0.000000   # H_
 217 1 3  -0.177719   9.238776  17.657224   0.000000   # C_3
 218 1 3   0.485691  10.295789  16.600211   0.000000   # C_3
 219 1 4   0.001558   7.668050  16.444214   0.000000   # H_
 220 1 4   0.003090  10.451786  19.227950   0.000000   # H_
 221 1 2  -0.680844   9.881590  15.381822   0.000000   # O_3
 222 1 2  -0.678679  11.514178  17.014410   0.000000   # O_3
 223 1 4   0.124355   5.410399  17.153193  25.930703   # H_
 224 1 4  -0.022287   5.378662  17.047492   0.714896   # H_
 225 1 2  -0.595513  24.962178  23.329590   0.000000   # O_3
 226 1 3   0.478817  23.743789  23.743789   0.000000   # C_3
 227 1 2  -0.598239  23.329590  24.962178   0.000000   # O_3
 228 1 3  -0.148047  22.686776  22.686776   0.000000   # C_3
 229 1 3   0.082143  23.004149  21.360803   0.000000   # C_3
 230 1 3   0.083273  21.360803  23.004149   0.000000   # C_3
 231 1 3  -0.127786  22.068168  20.387168   0.000000   # C_3
 232 1 4   0.037405  23.899786  21.116050   0.000000   # H_
 233 1 3  -0.129550  20.387168  22.068168   0.000000   # C_3
 234 1 4   0.035838  21.116050  23.899786   0.000000   # H_
 235 1 3   0.058192  20.691093  20.691093   0.000000   # C_3
 236 1 3   0.025314  19.652907  19.652907   0.000000   # C_3
 237 1 4   0.072696  22.337128  19.496910   0.000000   # H_
 238 1 3  -0.079363  19.956832  18.275832   0.000000   # C_3
 239 1 4   0.076420  19.496910  22.337128   0.000000   # H_
 240 1 3  -0.129927  18.275832  19.956832   0.000000   # C_3
 241 1 3   0.044885  18.983197  17.339851   0.000000   # C_3
 242 1 5  -0.013315  21.348969  17.710747  26.855656   # N_3
 243 1 3   0.076081  17.339851  18.983197   0.000000   # C_3
 244 1 4   0.066628  18.006872  20.847090   0.000000   # H_
 245 1 3  -0.174997  17.657224  17.657224   0.000000   # C_3
 246 1 3   0.485568  16.600211  16.600211   0.000000   # C_3
 247 1 4   0.007268  19.227950  16.444214   0.000000   # H_
 248 1 4   0.002495  16.444214  19.227950   0.000000   # H_
 249 1 2  -0.678172  17.014410  15.381822   0.000000   # O_3
 250 1 2  -0.678403  15.381822  17.014410   0.000000   # O_3
 251 1 4   0.146856  21.481566  17.090525  26.018921   # H_
 252 1 4   0.002112  21.478070  17.081919   0.781329   # H_
 253 1 2  -0.604045  24.962178   3.566410   0.000000   # O_3
 254 1 3   0.493399  23.743789   3.152211   0.000000   # C_3
 255 1 2  -0.680788  23.329590   1.933822   0.000000   # O_3
 256 1 3  -0.187430  22.686776   4.209224   0.000000   # C_3
 257 1 3   0.102814  23.004149   5.535197   0.000000   # C_3
 258 1 3   0.103737  21.360803   3.891851   0.000000   # C_3
 259 1 3  -0.151889  22.068168   6.508832   0.000000   # C_3
 260 1 4   0.027183  23.899786   5.779950   0.000000   # H_
 261 1 3  -0.161893  20.387168   4.827832   0.000000   # C_3
 262 1 4  -0.013344  21.116050   2.996214   0.000000   # H_
 263 1 3   0.068189  20.691093   6.204907   0.000000   # C_3
 264 1 3   0.010202  19.652907   7.243093   0.000000   # C_3
 265 1 4   0.078144  22.337128   7.399090   0.000000   # H_
 266 1 3  -0.076285  19.956832   8.620168   0.000000   # C_3
 267 1 4   0.063026  19.496910   4.558872   0.000000   # H_
 268 1 3  -0.122860  18.275832   6.939168   0.000000   # C_3
 269 1 3   0.038944  18.983197   9.556149   0.000000   # C_3
 270 1 5  -0.014031  21.366182   9.188212  26.802402   # N_3
 271 1 3   0.065477  17.339851   7.912803   0.000000   # C_3
 272 1 4   0.048364  18.006872   6.048910   0.000000   # H_
 273 1 3  -0.172005  17.657224   9.238776   0.000000   # C_3
 274 1 3   0.483613  16.600211  10.295789   0.000000   # C_3
 275 1 4   0.009748  19.227950  10.451786   0.000000   # H_
 276 1 4  -0.001209  16.444214   7.668050   0.000000   # H_
 277 1 2  -0.678216  17.014410  11.514178   0.000000   # O_3
 278 1 2  -0.680252  15.381822   9.881590   0.000000   # O_3
 279 1 4   0.144530  21.491249   9.696815  25.890090   # H_
 280 1 4  -0.000012  21.528903   9.873522   0.679662   # H_
 281 1 2  -0.691448   0.000000   1.933822   3.566410   # O_3
 282 1 3   0.508996   0.000000   3.152211   3.152211   # C_3
 283 1 2  -0.692006   0.000000   3.566410   1.933822   # O_3
 284 1 3  -0.229474   0.000000   4.209224   4.209224   # C_3
 285 1 3   0.124399   0.000000   3.891851   5.535197   # C_3
 286 1 3   0.125490   0.000000   5.535197   3.891851   # C_3
 287 1 3  -0.186036   0.000000   4.827832   6.508832   # C_3
 288 1 4  -0.024921   0.000000   2.996214   5.779950   # H_
 289 1 3  -0.186474   0.000000   6.508832   4.827832   # C_3
 290 1 4  -0.024835   0.000000   5.779950   2.996214   # H_
 291 1 3   0.077178   0.000000   6.204907   6.204907   # C_3
 292 1 3   0.000830   0.000000   7.243093   7.243093   # C_3
 293 1 4   0.065173   0.000000   4.558872   7.399090   # H_
 294 1 3  -0.083539   0.000000   6.939168   8.620168   # C_3
 295 1 4   0.069307   0.000000   7.399090   4.558872   # H_
 296 1 3  -0.120033   0.000000   8.620168   6.939168   # C_3
 297 1 3   0.039426   0.000000   7.912803   9.556149   # C_3
 298 1 5  -0.015034  26.775506   5.526052   9.185522   # N_3
 299 1 3   0.062227   0.000000   9.556149   7.912803   # C_3
 300 1 4   0.046781   0.000000   8.889128   6.048910   # H_
 301 1 3  -0.172969   0.000000   9.238776   9.238776   # C_3
 302 1 3   0.482637   0.000000  10.295789  10.295789   # C_3
 303 1 4   0.004989   0.000000   7.668050  10.451786   # H_
 304 1 4   0.001763   0.000000  10.451786   7.668050   # H_
 305 1 2  -0.679386   0.000000   9.881590  11.514178   # O_3
 306 1 2  -0.678584   0.000000  11.514178   9.881590   # O_3
 307 1 4   0.122836  25.825270   5.410668   9.617741   # H_
 308 1 4  -0.025048   0.614843   5.354187   9.916555   # H_
 309 1 2  -0.681182   0.000000   1.933822  23.329590   # O_3
 310 1 3   0.493399   0.000000   3.152211  23.743789   # C_3
 311 1 2  -0.604631   0.000000   3.566410  24.962178   # O_3
 312 1 3  -0.187778   0.000000   4.209224  22.686776   # C_3
 313 1 3   0.102611   0.000000   3.891851  21.360803   # C_3
 314 1 3   0.103890   0.000000   5.535197  23.004149   # C_3
 315 1 3  -0.160997   0.000000   4.827832  20.387168   # C_3
 316 1 4  -0.013768   0.000000   2.996214  21.116050   # H_
 317 1 3  -0.152708   0.000000   6.508832  22.068168   # C_3
 318 1 4   0.026869   0.000000   5.779950  23.899786   # H_
 319 1 3   0.066941   0.000000   6.204907  20.691093   # C_3
 320 1 3   0.015321   0.000000   7.243093  19.652907   # C_3
 321 1 4   0.059260   0.000000   4.558872  19.496910   # H_
 322 1 3  -0.085222   0.000000   6.939168  18.275832   # C_3
 323 1 4   0.083549   0.000000   7.399090  22.337128   # H_
 324 1 3  -0.125682   0.000000   8.620168  19.956832   # C_3
 325 1 3   0.044409   0.000000   7.912803  17.339851   # C_3
 326 1 5  -0.014962  26.770934   5.526321  17.711285   # N_3
 327 1 3   0.072360   0.000000   9.556149  18.983197   # C_3
 328 1 4   0.066205   0.000000   8.889128  20.847090   # H_
 329 1 3  -0.174655   0.000000   9.238776  17.657224   # C_3
 330 1 3   0.484380   0.000000  10.295789  16.600211   # C_3
 331 1 4   0.004291   0.000000   7.668050  16.444214   # H_
 332 1 4   0.007686   0.000000  10.451786  19.227950   # H_
 333 1 2  -0.679096   0.000000   9.881590  15.381822   # O_3
 334 1 2  -0.675725   0.000000  11.514178  17.014410   # O_3
 335 1 4   0.125030  25.814512   5.416048  17.291707   # H_
 336 1 4  -0.023363   0.604084   5.352573  16.972721   # H_
 337 1 2  -0.598638   0.000000  24.962178  23.329590   # O_3
 338 1 3   0.479122   0.000000  23.743789  23.743789   # C_3
 339 1 2  -0.596147   0.000000  23.329590  24.962178   # O_3
 340 1 3  -0.149120   0.000000  22.686776  22.686776   # C_3
 341 1 3   0.082892   0.000000  23.004149  21.360803   # C_3
 342 1 3   0.084538   0.000000  21.360803  23.004149   # C_3
 343 1 3  -0.129660   0.000000  22.068168  20.387168   # C_3
 344 1 4   0.035212   0.000000  23.899786  21.116050   # H_
 345 1 3  -0.130613   0.000000  20.387168  22.068168   # C_3
 346 1 4   0.036682   0.000000  21.116050  23.899786   # H_
 347 1 3   0.059298   0.000000  20.691093  20.691093   # C_3
 348 1 3   0.023183   0.000000  19.652907  19.652907   # C_3
 349 1 4   0.071200   0.000000  22.337128  19.496910   # H_
 350 1 3  -0.077810   0.000000  19.956832  18.275832   # C_3
 351 1 4   0.078610   0.000000  19.496910  22.337128   # H_
 352 1 3  -0.126297   0.000000  18.275832  19.956832   # C_3
 353 1 3   0.042756   0.000000  18.983197  17.339851   # C_3
 354 1 5  -0.013834  26.772009  21.369679  17.710478   # N_3
 355 1 3   0.074037   0.000000  17.339851  18.983197   # C_3
 356 1 4   0.068638   0.000000  18.006872  20.847090   # H_
 357 1 3  -0.171705   0.000000  17.657224  17.657224   # C_3
 358 1 3   0.484274   0.000000  16.600211  16.600211   # C_3
 359 1 4   0.010057   0.000000  19.227950  16.444214   # H_
 360 1 4   0.008009   0.000000  16.444214  19.227950   # H_
 361 1 2  -0.676703   0.000000  17.014410  15.381822   # O_3
 362 1 2  -0.675142   0.000000  15.381822  17.014410   # O_3
 363 1 4   0.144016  25.821505  21.482911  17.278528   # H_
 364 1 4  -0.000774   0.611077  21.543158  16.979714   # H_
 365 1 2  -0.607491   0.000000  24.962178   3.566410   # O_3
 366 1 3   0.494179   0.000000  23.743789   3.152211   # C_3
 367 1 2  -0.682126   0.000000  23.329590   1.933822   # O_3
 368 1 3  -0.189674   0.000000  22.686776   4.209224   # C_3
 369 1 3   0.103842   0.000000  23.004149   5.535197   # C_3
 370 1 3   0.105306   0.000000  21.360803   3.891851   # C_3
 371 1 3  -0.153798   0.000000  22.068168   6.508832   # C_3
 372 1 4   0.024792   0.000000  23.899786   5.779950   # H_
 373 1 3  -0.163566   0.000000  20.387168   4.827832   # C_3
 374 1 4  -0.014349   0.000000  21.116050   2.996214   # H_
 375 1 3   0.068978   0.000000  20.691093   6.204907   # C_3
 376 1 3   0.009137   0.000000  19.652907   7.243093   # C_3
 377 1 4   0.076902   0.000000  22.337128   7.399090   # H_
 378 1 3  -0.076446   0.000000  19.956832   8.620168   # C_3
 379 1 4   0.064149   0.000000  19.496910   4.558872   # H_
 380 1 3  -0.120969   0.000000  18.275832   6.939168   # C_3
 381 1 3   0.038040   0.000000  18.983197   9.556149   # C_3
 382 1 5  -0.013813  26.787878  21.369679   9.187136   # N_3
 383 1 3   0.064179   0.000000  17.339851   7.912803   # C_3
 384 1 4   0.049339   0.000000  18.006872   6.048910   # H_
 385 1 3  -0.170205   0.000000  17.657224   9.238776   # C_3
 386 1 3   0.482605   0.000000  16.600211  10.295789   # C_3
 387 1 4   0.010536   0.000000  19.227950  10.451786   # H_
 388 1 4   0.001992   0.000000  16.444214   7.668050   # H_
 389 1 2  -0.677012   0.000000  17.014410  11.514178   # O_3
 390 1 2  -0.678013   0.000000  15.381822   9.881590   # O_3
 391 1 4   0.142186  25.849746  21.492594   9.643561   # H_
 392 1 4  -0.002370   0.640932  21.536972   9.902300   # H_
 393 1 2  -0.630056   3.566410  13.448000  15.381822   # O_3
 394 1 3   0.517043   3.152211  13.448000  16.600211   # C_3
 395 1 2  -0.640020   1.933822  13.448000  17.014410   # O_3
 396 1 3  -0.223766   4.209224  13.448000  17.657224   # C_3
 397 1 3   0.162997   5.535197  13.448000  17.339851   # C_3
 398 1 3   0.163434   3.891851  13.448000  18.983197   # C_3
 399 1 3  -0.213636   6.508832  13.448000  18.275832   # C_3
 400 1 4  -0.004791   5.779950  13.448000  16.444214   # H_
 401 1 3  -0.211071   4.827832  13.448000  19.956832   # C_3
 402 1 4  -0.007181   2.996214  13.448000  19.227950   # H_
 403 1 3   0.151486   6.204907  13.448000  19.652907   # C_3
 404 1 3  -0.061882   7.243093  13.448000  20.691093   # C_3
 405 1 4   0.120685   7.399090  13.448000  18.006872   # H_
 406 1 3   0.083160   8.620168  13.448000  20.387168   # C_3
 407 1 4   0.112335   4.558872  13.448000  20.847090   # H_
 408 1 3  -0.018412   6.939168  13.448000  22.068168   # C_3
 409 1 3  -0.061058   9.556149  13.448000  21.360803   # C_3
 410 1 5  -0.183812   9.201391  13.134393  19.035644   # N_3
 411 1 3  -0.009316   7.912803  13.448000  23.004149   # C_3
 412 1 4   0.049899   6.048910  13.448000  22.337128   # H_
 413 1 3  -0.058032   9.238776  13.448000  22.686776   # C_3
 414 1 3   0.456205  10.295789  13.448000  23.743789   # C_3
 415 1 4   0.072548  10.451786  13.448000  21.116050   # H_
 416 1 4   0.082823   7.668050  13.448000  23.899786   # H_
 417 1 2  -0.613594  11.514178  13.448000  23.329590   # O_3
 418 1 2  -0.547512   9.881590  13.448000  24.962178   # O_3
 419 1 4   0.077018   9.828336  12.237680  18.979431   # H_
 420 1 4   0.078623   9.860612  13.925673  18.810793   # H_
 421 1 2  -0.620408  23.329590  13.448000  15.381822   # O_3
 422 1 3   0.501111  23.743789  13.448000  16.600211   # C_3
 423 1 2  -0.552618  24.962178  13.448000  17.014410   # O_3
 424 1 3  -0.181648  22.686776  13.448000  17.657224   # C_3
 425 1 3   0.140591  21.360803  13.448000  17.339851   # C_3
 426 1 3   0.141208  23.004149  13.448000  18.983197   # C_3
 427 1 3  -0.187939  20.387168  13.448000  18.275832   # C_3
 428 1 4   0.006536  21.116050  13.448000  16.444214   # H_
 429 1 3  -0.176029  22.068168  13.448000  19.956832   # C_3
 430 1 4   0.045115  23.899786  13.448000  19.227950   # H_
 431 1 3   0.139750  20.691093  13.448000  19.652907   # C_3
 432 1 3  -0.045625  19.652907  13.448000  20.691093   # C_3
 433 1 4   0.114432  19.496910  13.448000  18.006872   # H_
 434 1 3   0.076980  18.275832  13.448000  20.387168   # C_3
 435 1 4   0.126579  22.337128  13.448000  20.847090   # H_
 436 1 3  -0.026693  19.956832  13.448000  22.068168   # C_3
 437 1 3  -0.052893  17.339851  13.448000  21.360803   # C_3
 438 1 5  -0.189843  17.606122  13.711581  19.041023   # N_3
 439 1 3   0.003150  18.983197  13.448000  23.004149   # C_3
 440 1 4   0.069859  20.847090  13.448000  22.337128   # H_
 441 1 3  -0.062648  17.657224  13.448000  22.686776   # C_3
 442 1 3   0.458747  16.600211  13.448000  23.743789   # C_3
 443 1 4   0.069804  16.444214  13.448000  21.116050   # H_
 444 1 4   0.086425  19.227950  13.448000  23.899786   # H_
 445 1 2  -0.613822  15.381822  13.448000  23.329590   # O_3
 446 1 2  -0.546109  17.014410  13.448000  24.962178   # O_3
 447 1 4   0.081525  16.776380  13.101580  18.846027   # H_
 448 1 4   0.089189  17.200530  14.657782  19.132470   # H_
 449 1 2  -0.620496  23.329590  13.448000  11.514178   # O_3
 450 1 3   0.498802  23.743789  13.448000  10.295789   # C_3
 451 1 2  -0.554724  24.962178  13.448000   9.881590   # O_3
 452 1 3  -0.178337  22.686776  13.448000   9.238776   # C_3
 453 1 3   0.132547  21.360803  13.448000   9.556149   # C_3
 454 1 3   0.130270  23.004149  13.448000   7.912803   # C_3
 455 1 3  -0.181793  20.387168  13.448000   8.620168   # C_3
 456 1 4   0.008327  21.116050  13.448000  10.451786   # H_
 457 1 3  -0.169845  22.068168  13.448000   6.939168   # C_3
 458 1 4   0.040026  23.899786  13.448000   7.668050   # H_
 459 1 3   0.125544  20.691093  13.448000   7.243093   # C_3
 460 1 3  -0.038658  19.652907  13.448000   6.204907   # C_3
 461 1 4   0.110650  19.496910  13.448000   8.889128   # H_
 462 1 3   0.061997  18.275832  13.448000   6.508832   # C_3
 463 1 4   0.108180  22.337128  13.448000   6.048910   # H_
 464 1 3  -0.055608  19.956832  13.448000   4.827832   # C_3
 465 1 3  -0.037143  17.339851  13.448000   5.535197   # C_3
 466 1 5  -0.187695  17.599667  13.211584   7.861970   # N_3
 467 1 3   0.021897  18.983197  13.448000   3.891851   # C_3
 468 1 4   0.056521  20.847090  13.448000   4.558872   # H_
 469 1 3  -0.099455  17.657224  13.448000   4.209224   # C_3
 470 1 3   0.473410  16.600211  13.448000   3.152211   # C_3
 471 1 4   0.061828  16.444214  13.448000   5.779950   # H_
 472 1 4   0.038898  19.227950  13.448000   2.996214   # H_
 473 1 2  -0.622896  15.381822  13.448000   3.566410   # O_3
 474 1 2  -0.631778  17.014410  13.448000   1.933822   # O_3
 475 1 4   0.080044  16.785794  13.846330   8.058848   # H_
 476 1 4   0.084052  17.177399  12.269417   7.788544   # H_
 477 1 2  -0.630164   3.566410  13.448000  11.514178   # O_3
 478 1 3   0.514723   3.152211  13.448000  10.295789   # C_3
 479 1 2  -0.642654   1.933822  13.448000   9.881590   # O_3
 480 1 3  -0.220374   4.209224  13.448000   9.238776   # C_3
 481 1 3   0.155006   5.535197  13.448000   9.556149   # C_3
 482 1 3   0.151784   3.891851  13.448000   7.912803   # C_3
 483 1 3  -0.207624   6.508832  13.448000   8.620168   # C_3
 484 1 4  -0.003017   5.779950  13.448000  10.451786   # H_
 485 1 3  -0.203865   4.827832  13.448000   6.939168   # C_3
 486 1 4  -0.012515   2.996214  13.448000   7.668050   # H_
 487 1 3   0.135399   6.204907  13.448000   7.243093   # C_3