 (written by mofun)

480 atoms
0 bonds
0 angles
0 dihedrals
0 impropers

5 atom types
   0.000000  20.700400 xlo xhi
   0.000000  20.700400 ylo yhi
   0.000000  20.700400 zlo zhi

Masses

 1 91.2240   # Zr3+4
 2 15.9994   # O_3
 3 12.0107   # C_3
 4 1.0079   # H_
 5 14.0067   # N_3

Pair Coeffs

 1   0.069000   2.783168 # Zr3+4
 2   0.060000   3.118146 # O_3
 3   0.105000   3.430851 # C_3
 4   0.044000   2.571134 # H_
 5   0.069000   3.260689 # N_3

Atoms

 1 1 1   3.167600   2.481771   0.000000   0.000000   # Zr3+4
 2 1 1   3.190440   2.481771  10.350200  10.350200   # Zr3+4
 3 1 1   3.176170  12.831971   0.000000  10.350200   # Zr3+4
 4 1 1   3.180540  12.831971  10.350200   0.000000   # Zr3+4
 5 1 1   3.165720  18.218629   0.000000   0.000000   # Zr3+4
 6 1 1   3.191140  18.218629  10.350200  10.350200   # Zr3+4
 7 1 1   3.178680   7.868429   0.000000  10.350200   # Zr3+4
 8 1 1   3.177770   7.868429  10.350200   0.000000   # Zr3+4
 9 1 1   3.167590   0.000000   2.481771   0.000000   # Zr3+4
 10 1 1   3.144370   0.000000  12.831971  10.350200   # Zr3+4
 11 1 1   3.190500  10.350200   2.481771  10.350200   # Zr3+4
 12 1 1   3.180480  10.350200  12.831971   0.000000   # Zr3+4
 13 1 1   3.165690   0.000000  18.218629   0.000000   # Zr3+4
 14 1 1   3.210540   0.000000   7.868429  10.350200   # Zr3+4
 15 1 1   3.191080  10.350200  18.218629  10.350200   # Zr3+4
 16 1 1   3.177710  10.350200   7.868429   0.000000   # Zr3+4
 17 1 1   3.197380   0.000000   0.000000   2.481771   # Zr3+4
 18 1 1   3.176270   0.000000  10.350200  12.831971   # Zr3+4
 19 1 1   3.144410  10.350200   0.000000  12.831971   # Zr3+4
 20 1 1   3.191060  10.350200  10.350200   2.481771   # Zr3+4
 21 1 1   3.133860   0.000000   0.000000  18.218629   # Zr3+4
 22 1 1   3.178640   0.000000  10.350200   7.868429   # Zr3+4
 23 1 1   3.210600  10.350200   0.000000   7.868429   # Zr3+4
 24 1 1   3.191710  10.350200  10.350200  18.218629   # Zr3+4
 25 1 2  -1.314720   1.161292   9.188908   9.188908   # O_3
 26 1 2  -1.214000  11.511492  19.539108   9.188908   # O_3
 27 1 2  -1.323890  11.511492   9.188908  19.539108   # O_3
 28 1 2  -1.314590   9.188908   1.161292   9.188908   # O_3
 29 1 2  -1.323830   9.188908  11.511492  19.539108   # O_3
 30 1 2  -1.168610  19.539108  19.539108   1.161292   # O_3
 31 1 2  -1.213530  19.539108   9.188908  11.511492   # O_3
 32 1 2  -1.368910   1.161292   1.161292   1.161292   # O_3
 33 1 2  -1.416200  11.511492  11.511492   1.161292   # O_3
 34 1 2  -1.352030  19.539108   1.161292   1.161292   # O_3
 35 1 2  -1.435930  19.539108  11.511492  11.511492   # O_3
 36 1 2  -1.537090   9.188908   1.161292  11.511492   # O_3
 37 1 2  -1.424650   9.188908  11.511492   1.161292   # O_3
 38 1 2  -1.352520   1.161292  19.539108   1.161292   # O_3
 39 1 2  -1.409800   1.161292   9.188908  11.511492   # O_3
 40 1 2  -1.436540  11.511492  19.539108  11.511492   # O_3
 41 1 2  -1.424490  11.511492   9.188908   1.161292   # O_3
 42 1 2  -1.285880  19.539108  19.539108  19.539108   # O_3
 43 1 2  -1.298300  19.539108   9.188908   9.188908   # O_3
 44 1 2  -1.298580   9.188908  19.539108   9.188908   # O_3
 45 1 2  -1.332090   9.188908   9.188908  19.539108   # O_3
 46 1 2  -1.483720   1.161292   1.161292  19.539108   # O_3
 47 1 2  -1.537150   1.161292  11.511492   9.188908   # O_3
 48 1 2  -1.409580  11.511492   1.161292   9.188908   # O_3
 49 1 3   0.525891   3.179581   0.000000  17.520819   # C_3
 50 1 2  -0.719002   3.528590   0.000000  18.727859   # O_3
 51 1 2  -0.787638   1.972541   0.000000  17.171810   # O_3
 52 1 3  -0.123744   4.243582   0.000000  16.456818   # C_3
 53 1 3  -0.049114   3.816533   0.000000  15.162836   # C_3
 54 1 4   0.014933   2.700574   0.000000  14.930785   # H_
 55 1 5  -0.261208   4.406908   0.037054  12.756207   # N_3
 56 1 3   0.107641   4.812636   0.000000  14.167768   # C_3
 57 1 3  -0.206053   6.106618   0.000000  14.593782   # C_3
 58 1 3   0.038241   6.532632   0.000000  15.887764   # C_3
 59 1 3  -0.010914   5.537564   0.000000  16.883867   # C_3
 60 1 4   0.048675   5.769615   0.000000  17.999826   # H_
 61 1 4   0.018021   7.648591   0.000000  16.119815   # H_
 62 1 2  -0.794194   8.377452   0.000000  13.878790   # O_3
 63 1 3   0.556956   7.170619   0.000000  13.529781   # C_3
 64 1 2  -0.777188   6.821610   0.000000  12.322741   # O_3
 65 1 4   0.183116   3.692744  19.986650  12.648565   # H_
 66 1 4   0.067710   3.911134   0.934623  12.546926   # H_
 67 1 3   0.540348   3.179581  10.350200   7.170619   # C_3
 68 1 2  -0.656350   3.528590  10.350200   8.377659   # O_3
 69 1 2  -0.664098   1.972541  10.350200   6.821610   # O_3
 70 1 3  -0.118366   4.243582  10.350200   6.106618   # C_3
 71 1 3  -0.030099   3.816533  10.350200   4.812636   # C_3
 72 1 4   0.036692   2.700574  10.350200   4.580585   # H_
 73 1 5  -0.183190   4.406494  10.383942   2.405593   # N_3
 74 1 3   0.121409   4.812636  10.350200   3.817568   # C_3
 75 1 3  -0.189076   6.106618  10.350200   4.243582   # C_3
 76 1 3   0.041252   6.532632  10.350200   5.537564   # C_3
 77 1 3  -0.001287   5.537564  10.350200   6.533667   # C_3
 78 1 4   0.040186   5.769615  10.350200   7.649626   # H_
 79 1 4   0.030129   7.648591  10.350200   5.769615   # H_
 80 1 2  -0.745658   8.377452  10.350200   3.528590   # O_3
 81 1 3   0.556695   7.170619  10.350200   3.179581   # C_3
 82 1 2  -0.744599   6.821610  10.350200   1.972541   # O_3
 83 1 4   0.059310   3.693572   9.631896   2.298572   # H_
 84 1 4   0.065641   3.909271  11.281097   2.195898   # H_
 85 1 3   0.534951  13.529781   0.000000   7.170619   # C_3
 86 1 2  -0.701269  13.878790   0.000000   8.377659   # O_3
 87 1 2  -0.692175  12.322741   0.000000   6.821610   # O_3
 88 1 3  -0.135819  14.593782   0.000000   6.106618   # C_3
 89 1 3  -0.035483  14.166733   0.000000   4.812636   # C_3
 90 1 4   0.018543  13.050774   0.000000   4.580585   # H_
 91 1 5  -0.257810  14.702459   0.025461   2.338524   # N_3
 92 1 3   0.098850  15.162629   0.000000   3.817568   # C_3
 93 1 3  -0.181310  16.456611   0.000000   4.243582   # C_3
 94 1 3   0.031682  16.882832   0.000000   5.537564   # C_3
 95 1 3  -0.001931  15.887764   0.000000   6.533667   # C_3
 96 1 4   0.027550  16.119815   0.000000   7.649626   # H_
 97 1 4   0.040375  17.998791   0.000000   5.769615   # H_
 98 1 2  -0.634219  18.727652   0.000000   3.528590   # O_3
 99 1 3   0.552721  17.520612   0.000000   3.179581   # C_3
 100 1 2  -0.698006  17.171603   0.000000   1.972541   # O_3
 101 1 4   0.176824  14.017690  20.001554   2.022015   # H_
 102 1 4   0.062414  14.236907   0.935037   2.124068   # H_
 103 1 3   0.523382  13.529781  10.350200  17.520819   # C_3
 104 1 2  -0.671913  13.878790  10.350200  18.727859   # O_3
 105 1 2  -0.725484  12.322741  10.350200  17.171810   # O_3
 106 1 3  -0.106921  14.593782  10.350200  16.456818   # C_3
 107 1 3  -0.024203  14.166733  10.350200  15.162836   # C_3
 108 1 4   0.046933  13.050774  10.350200  14.930785   # H_
 109 1 5  -0.176886  14.744067  10.370279  12.676925   # N_3
 110 1 3   0.118235  15.162629  10.350200  14.167768   # C_3
 111 1 3  -0.163664  16.456611  10.350200  14.593782   # C_3
 112 1 3   0.055443  16.882832  10.350200  15.887764   # C_3
 113 1 3   0.015288  15.887764  10.350200  16.883867   # C_3
 114 1 4   0.082603  16.119815  10.350200  17.999826   # H_
 115 1 4   0.078374  17.998791  10.350200  16.119815   # H_
 116 1 2  -0.594348  18.727652  10.350200  13.878790   # O_3
 117 1 3   0.556118  17.520612  10.350200  13.529781   # C_3
 118 1 2  -0.643779  17.171603  10.350200  12.322741   # O_3
 119 1 4   0.076280  14.037355   9.630447  12.445494   # H_
 120 1 4   0.080152  14.281620  11.284409  12.454810   # H_
 121 1 3   0.522308  17.520819   0.000000  17.520819   # C_3
 122 1 2  -0.715224  17.171810   0.000000  18.727859   # O_3
 123 1 2  -0.719153  18.727859   0.000000  17.171810   # O_3
 124 1 3  -0.125967  16.456818   0.000000  16.456818   # C_3
 125 1 3  -0.005807  16.883867   0.000000  15.162836   # C_3
 126 1 4   0.043808  17.999826   0.000000  14.930785   # H_
 127 1 5  -0.040229  16.323921  20.493396  12.698453   # N_3
 128 1 3   0.029230  15.887971   0.000000  14.167768   # C_3
 129 1 3  -0.172469  14.593989   0.000000  14.593782   # C_3
 130 1 3   0.022773  14.167768   0.000000  15.887764   # C_3
 131 1 3   0.001064  15.162836   0.000000  16.883867   # C_3
 132 1 4   0.044071  14.930785   0.000000  17.999826   # H_
 133 1 4   0.020768  13.051809   0.000000  16.119815   # H_
 134 1 2  -0.796687  12.322948   0.000000  13.878790   # O_3
 135 1 3   0.542891  13.529988   0.000000  13.529781   # C_3
 136 1 2  -0.791026  13.878997   0.000000  12.322741   # O_3
 137 1 4   0.010803  16.827355   0.674419  12.447358   # H_
 138 1 4   0.130969  16.787610  19.583406  12.459157   # H_
 139 1 3   0.520720  17.520819  10.350200   7.170619   # C_3
 140 1 2  -0.727446  17.171810  10.350200   8.377659   # O_3
 141 1 2  -0.671796  18.727859  10.350200   6.821610   # O_3
 142 1 3  -0.104165  16.456818  10.350200   6.106618   # C_3
 143 1 3  -0.026127  16.883867  10.350200   4.812636   # C_3
 144 1 4   0.073203  17.999826  10.350200   4.580585   # H_
 145 1 5  -0.182573  16.349383  10.374212   2.344527   # N_3
 146 1 3   0.129633  15.887971  10.350200   3.817568   # C_3
 147 1 3  -0.184439  14.593989  10.350200   4.243582   # C_3
 148 1 3   0.046397  14.167768  10.350200   5.537564   # C_3
 149 1 3  -0.004640  15.162836  10.350200   6.533667   # C_3
 150 1 4   0.041580  14.930785  10.350200   7.649626   # H_
 151 1 4   0.030980  13.051809  10.350200   5.769615   # H_
 152 1 2  -0.660817  12.322948  10.350200   3.528590   # O_3
 153 1 3   0.566672  13.529988  10.350200   3.179581   # C_3
 154 1 2  -0.657042  13.878997  10.350200   1.972541   # O_3
 155 1 4   0.088170  17.016350   9.635622   2.018496   # H_
 156 1 4   0.086812  16.820110  11.283167   2.136074   # H_
 157 1 3   0.532421   7.170619   0.000000   7.170619   # C_3
 158 1 2  -0.703617   6.821610   0.000000   8.377659   # O_3
 159 1 2  -0.691846   8.377659   0.000000   6.821610   # O_3
 160 1 3  -0.134314   6.106618   0.000000   6.106618   # C_3
 161 1 3  -0.041396   6.533667   0.000000   4.812636   # C_3
 162 1 4   0.020431   7.649626   0.000000   4.580585   # H_
 163 1 5  -0.260099   5.993387   0.036640   2.355499   # N_3
 164 1 3   0.100197   5.537564   0.000000   3.817568   # C_3
 165 1 3  -0.200016   4.243582   0.000000   4.243582   # C_3
 166 1 3   0.028371   3.817568   0.000000   5.537564   # C_3
 167 1 3  -0.015137   4.812636   0.000000   6.533667   # C_3
 168 1 4   0.014122   4.580585   0.000000   7.649626   # H_
 169 1 4   0.001948   2.701609   0.000000   5.769615   # H_
 170 1 2  -0.705488   1.972748   0.000000   3.528590   # O_3
 171 1 3   0.563187   3.179581   0.000000   3.179581   # C_3
 172 1 2  -0.705235   3.528590   0.000000   1.972541   # O_3
 173 1 4   0.183689   6.522696  19.882527   2.086393   # H_
 174 1 4   0.062309   6.619367   0.875420   2.266901   # H_
 175 1 3   0.529247   7.170619  10.350200  17.520819   # C_3
 176 1 2  -0.599737   6.821610  10.350200  18.727859   # O_3
 177 1 2  -0.647006   8.377659  10.350200  17.171810   # O_3
 178 1 3  -0.099639   6.106618  10.350200  16.456818   # C_3
 179 1 3  -0.034286   6.533667  10.350200  15.162836   # C_3
 180 1 4   0.051911   7.649626  10.350200  14.930785   # H_
 181 1 5  -0.186746   5.902098  10.252494  12.740268   # N_3
 182 1 3   0.132128   5.537564  10.350200  14.167768   # C_3
 183 1 3  -0.194448   4.243582  10.350200  14.593782   # C_3
 184 1 3   0.051899   3.817568  10.350200  15.887764   # C_3
 185 1 3  -0.002540   4.812636  10.350200  16.883867   # C_3
 186 1 4   0.065776   4.580585  10.350200  17.999826   # H_
 187 1 4   0.029569   2.701609  10.350200  16.119815   # H_
 188 1 2  -0.755943   1.972748  10.350200  13.878790   # O_3
 189 1 3   0.559265   3.179581  10.350200  13.529781   # C_3
 190 1 2  -0.739242   3.528590  10.350200  12.322741   # O_3
 191 1 4   0.078752   6.335564  11.090860  12.268920   # H_
 192 1 4   0.087001   6.334115   9.340434  12.523949   # H_
 193 1 3   0.523741  17.520819   3.179581   0.000000   # C_3
 194 1 2  -0.710239  18.727859   3.528590   0.000000   # O_3
 195 1 2  -0.774533  17.171810   1.972541   0.000000   # O_3
 196 1 3  -0.122984  16.456818   4.243582   0.000000   # C_3
 197 1 3  -0.040392  15.162836   3.816533   0.000000   # C_3
 198 1 4   0.017966  14.930785   2.700574   0.000000   # H_
 199 1 5  -0.252176  12.698660   4.347084   0.035398   # N_3
 200 1 3   0.104989  14.167768   4.812636   0.000000   # C_3
 201 1 3  -0.196958  14.593782   6.106618   0.000000   # C_3
 202 1 3   0.039761  15.887764   6.532632   0.000000   # C_3
 203 1 3  -0.006754  16.883867   5.537564   0.000000   # C_3
 204 1 4   0.053690  17.999826   5.769615   0.000000   # H_
 205 1 4   0.022716  16.119815   7.648591   0.000000   # H_
 206 1 2  -0.700266  13.878790   8.377452   0.000000   # O_3
 207 1 3   0.562008  13.529781   7.170619   0.000000   # C_3
 208 1 2  -0.696415  12.322741   6.821610   0.000000   # O_3
 209 1 4   0.172681  12.381116   3.704544  19.975886   # H_
 210 1 4   0.066228  12.470335   3.857520   0.929241   # H_
 211 1 3   0.525518  17.520819  13.529781  10.350200   # C_3
 212 1 2  -0.678449  18.727859  13.878790  10.350200   # O_3
 213 1 2  -0.725595  17.171810  12.322741  10.350200   # O_3
 214 1 3  -0.103465  16.456818  14.593782  10.350200   # C_3
 215 1 3  -0.028545  15.162836  14.166733  10.350200   # C_3
 216 1 4   0.047708  14.930785  13.050774  10.350200   # H_
 217 1 5  -0.183326  12.744615  14.751312  10.257876   # N_3
 218 1 3   0.129026  14.167768  15.162629  10.350200   # C_3
 219 1 3  -0.173612  14.593782  16.456611  10.350200   # C_3
 220 1 3   0.058468  15.887764  16.882832  10.350200   # C_3
 221 1 3   0.010975  16.883867  15.887764  10.350200   # C_3
 222 1 4   0.083503  17.999826  16.119815  10.350200   # H_
 223 1 4   0.066048  16.119815  17.998791  10.350200   # H_
 224 1 2  -0.601636  13.878790  18.727652  10.350200   # O_3
 225 1 3   0.558698  13.529781  17.520612  10.350200   # C_3
 226 1 2  -0.649645  12.322741  17.171603  10.350200   # O_3
 227 1 4   0.089054  12.350273  15.007169   9.311454   # H_
 228 1 4   0.074266  12.630142  13.725400  10.427205   # H_
 229 1 3   0.540885   7.170619   3.179581  10.350200   # C_3
 230 1 2  -0.656189   8.377659   3.528590  10.350200   # O_3
 231 1 2  -0.664260   6.821610   1.972541  10.350200   # O_3
 232 1 3  -0.120092   6.106618   4.243582  10.350200   # C_3
 233 1 3  -0.025593   4.812636   3.816533  10.350200   # C_3
 234 1 4   0.036173   4.580585   2.700574  10.350200   # H_
 235 1 5  -0.182343   2.365021   4.369647  10.387047   # N_3
 236 1 3   0.115228   3.817568   4.812636  10.350200   # C_3
 237 1 3  -0.181570   4.243582   6.106618  10.350200   # C_3
 238 1 3   0.040108   5.537564   6.532632  10.350200   # C_3
 239 1 3   0.000353   6.533667   5.537564  10.350200   # C_3
 240 1 4   0.040228   7.649626   5.769615  10.350200   # H_
 241 1 4   0.030236   5.769615   7.648591  10.350200   # H_
 242 1 2  -0.662429   3.528590   8.377452  10.350200   # O_3
 243 1 3   0.561860   3.179581   7.170619  10.350200   # C_3
 244 1 2  -0.651568   1.972541   6.821610  10.350200   # O_3
 245 1 4   0.060097   2.215150   3.658589   9.641832   # H_
 246 1 4   0.065958   2.131313   3.985655  11.335125   # H_
 247 1 3   0.536218   7.170619  13.529781   0.000000   # C_3
 248 1 2  -0.695357   8.377659  13.878790   0.000000   # O_3
 249 1 2  -0.698407   6.821610  12.322741   0.000000   # O_3
 250 1 3  -0.131514   6.106618  14.593782   0.000000   # C_3
 251 1 3  -0.043621   4.812636  14.166733   0.000000   # C_3
 252 1 4   0.019608   4.580585  13.050774   0.000000   # H_
 253 1 5  -0.256046   2.410562  14.761455   0.033742   # N_3
 254 1 3   0.106820   3.817568  15.162629   0.000000   # C_3
 255 1 3  -0.189888   4.243582  16.456611   0.000000   # C_3
 256 1 3   0.034373   5.537564  16.882832   0.000000   # C_3
 257 1 3  -0.004795   6.533667  15.887764   0.000000   # C_3
 258 1 4   0.030018   7.649626  16.119815   0.000000   # H_
 259 1 4   0.038531   5.769615  17.998791   0.000000   # H_
 260 1 2  -0.718200   3.528590  18.727652   0.000000   # O_3
 261 1 3   0.548888   3.179581  17.520612   0.000000   # C_3
 262 1 2  -0.771026   1.972541  17.171603   0.000000   # O_3
 263 1 4   0.172442   2.310372  14.049982  19.980233   # H_
 264 1 4   0.064264   2.192172  14.259678   0.924480   # H_
 265 1 3   0.520430  17.520819  17.520819   0.000000   # C_3
 266 1 2  -0.627329  18.727859  17.171810   0.000000   # O_3
 267 1 2  -0.627444  17.171810  18.727859   0.000000   # O_3
 268 1 3  -0.096851  16.456818  16.456818   0.000000   # C_3
 269 1 3  -0.047777  15.162836  16.883867   0.000000   # C_3
 270 1 4   0.052662  14.930785  17.999826   0.000000   # H_
 271 1 5  -0.258424  12.755793  16.292871   0.030637   # N_3
 272 1 3   0.123999  14.167768  15.887971   0.000000   # C_3
 273 1 3  -0.206120  14.593782  14.593989   0.000000   # C_3
 274 1 3   0.046232  15.887764  14.167768   0.000000   # C_3
 275 1 3  -0.012990  16.883867  15.162836   0.000000   # C_3
 276 1 4   0.055163  17.999826  14.930785   0.000000   # H_
 277 1 4   0.019891  16.119815  13.051809   0.000000   # H_
 278 1 2  -0.778288  13.878790  12.322948   0.000000   # O_3
 279 1 3   0.556086  13.529781  13.529988   0.000000   # C_3
 280 1 2  -0.769028  12.322741  13.878997   0.000000   # O_3
 281 1 4   0.201751  12.651877  17.007449  19.979819   # H_
 282 1 4   0.088912  12.542993  16.787817   0.927999   # H_
 283 1 3   0.525904  17.520819   7.170619  10.350200   # C_3
 284 1 2  -0.584404  18.727859   6.821610  10.350200   # O_3
 285 1 2  -0.647052  17.171810   8.377659  10.350200   # O_3
 286 1 3  -0.098748  16.456818   6.106618  10.350200   # C_3
 287 1 3  -0.032417  15.162836   6.533667  10.350200   # C_3
 288 1 4   0.048766  14.930785   7.649626  10.350200   # H_
 289 1 5  -0.182504  12.718326   5.927974  10.321840   # N_3
 290 1 3   0.122725  14.167768   5.537564  10.350200   # C_3
 291 1 3  -0.189296  14.593782   4.243582  10.350200   # C_3
 292 1 3   0.051287  15.887764   3.817568  10.350200   # C_3
 293 1 3  -0.001261  16.883867   4.812636  10.350200   # C_3
 294 1 4   0.067864  17.999826   4.580585  10.350200   # H_
 295 1 4   0.030802  16.119815   2.701609  10.350200   # H_
 296 1 2  -0.755985  13.878790   1.972748  10.350200   # O_3
 297 1 3   0.558451  13.529781   3.179581  10.350200   # C_3
 298 1 2  -0.737030  12.322741   3.528590  10.350200   # O_3
 299 1 4   0.079932  12.402024   6.327698  11.236384   # H_
 300 1 4   0.081824  12.775252   6.618746   9.551372   # H_
 301 1 3   0.519899   7.170619  17.520819  10.350200   # C_3
 302 1 2  -0.727732   8.377659  17.171810  10.350200   # O_3
 303 1 2  -0.672357   6.821610  18.727859  10.350200   # O_3
 304 1 3  -0.103150   6.106618  16.456818  10.350200   # C_3
 305 1 3  -0.031044   4.812636  16.883867  10.350200   # C_3
 306 1 4   0.072629   4.580585  17.999826  10.350200   # H_
 307 1 5  -0.183745   2.398141  16.256645  10.102209   # N_3
 308 1 3   0.131545   3.817568  15.887971  10.350200   # C_3
 309 1 3  -0.192560   4.243582  14.593989  10.350200   # C_3
 310 1 3   0.046949   5.537564  14.167768  10.350200   # C_3
 311 1 3  -0.006916   6.533667  15.162836  10.350200   # C_3
 312 1 4   0.041742   7.649626  14.930785  10.350200   # H_
 313 1 4   0.028264   5.769615  13.051809  10.350200   # H_
 314 1 2  -0.747859   3.528590  12.322948  10.350200   # O_3
 315 1 3   0.561717   3.179581  13.529988  10.350200   # C_3
 316 1 2  -0.754871   1.972541  13.878997  10.350200   # O_3
 317 1 4   0.092853   2.454653  16.816591   9.207331   # H_
 318 1 4   0.080490   1.873593  16.686385  10.899589   # H_
 319 1 3   0.526701   7.170619   7.170619   0.000000   # C_3
 320 1 2  -0.784504   8.377659   6.821610   0.000000   # O_3
 321 1 2  -0.782232   6.821610   8.377659   0.000000   # O_3
 322 1 3  -0.137699   6.106618   6.106618   0.000000   # C_3
 323 1 3  -0.041410   4.812636   6.533667   0.000000   # C_3
 324 1 4   0.021375   4.580585   7.649626   0.000000   # H_
 325 1 5  -0.253749   2.360467   5.985314   0.037675   # N_3
 326 1 3   0.101129   3.817568   5.537564   0.000000   # C_3
 327 1 3  -0.199197   4.243582   4.243582   0.000000   # C_3
 328 1 3   0.029435   5.537564   3.817568   0.000000   # C_3
 329 1 3  -0.014734   6.533667   4.812636   0.000000   # C_3
 330 1 4   0.015042   7.649626   4.580585   0.000000   # H_
 331 1 4   0.004794   5.769615   2.701609   0.000000   # H_
 332 1 2  -0.710664   3.528590   1.972748   0.000000   # O_3
 333 1 3   0.566574   3.179581   3.179581   0.000000   # C_3
 334 1 2  -0.701531   1.972541   3.528590   0.000000   # O_3
 335 1 4   0.175328   2.147874   6.555403  19.893291   # H_
 336 1 4   0.061985   2.252825   6.595768   0.887012   # H_
 337 1 3   0.527550   0.000000  17.520819   3.179581   # C_3
 338 1 2  -0.628470   0.000000  18.727859   3.528590   # O_3
 339 1 2  -0.700770   0.000000  17.171810   1.972541   # O_3
 340 1 3  -0.116518   0.000000  16.456818   4.243582   # C_3
 341 1 3  -0.049158   0.000000  15.162836   3.816533   # C_3
 342 1 4   0.016490   0.000000  14.930785   2.700574   # H_
 343 1 5  -0.261712   0.033949  12.754344   4.405045   # N_3
 344 1 3   0.109122   0.000000  14.167768   4.812636   # C_3
 345 1 3  -0.205958   0.000000  14.593782   6.106618   # C_3
 346 1 3   0.040205   0.000000  15.887764   6.532632   # C_3
 347 1 3  -0.010520   0.000000  16.883867   5.537564   # C_3
 348 1 4   0.052172   0.000000  17.999826   5.769615   # H_
 349 1 4   0.019492   0.000000  16.119815   7.648591   # H_
 350 1 2  -0.793814   0.000000  13.878790   8.377452   # O_3
 351 1 3   0.557497   0.000000  13.529781   7.170619   # C_3
 352 1 2  -0.777130   0.000000  12.322741   6.821610   # O_3
 353 1 4   0.185430  19.981889  12.645046   3.692744   # H_
 354 1 4   0.067935   0.931932  12.546926   3.908236   # H_
 355 1 3   0.533328   0.000000   7.170619  13.529781   # C_3
 356 1 2  -0.699616   0.000000   8.377659  13.878790   # O_3
 357 1 2  -0.692148   0.000000   6.821610  12.322741   # O_3
 358 1 3  -0.133069   0.000000   6.106618  14.593782   # C_3
 359 1 3  -0.042327   0.000000   4.812636  14.166733   # C_3
 360 1 4   0.017231   0.000000   4.580585  13.050774   # H_
 361 1 5  -0.260473   0.040159   2.384686  14.740341   # N_3
 362 1 3   0.101186   0.000000   3.817568  15.162629   # C_3
 363 1 3  -0.190630   0.000000   4.243582  16.456611   # C_3
 364 1 3   0.032994   0.000000   5.537564  16.882832   # C_3
 365 1 3  -0.005521   0.000000   6.533667  15.887764   # C_3
 366 1 4   0.029137   0.000000   7.649626  16.119815   # H_
 367 1 4   0.036233   0.000000   5.769615  17.998791   # H_
 368 1 2  -0.725644   0.000000   3.528590  18.727652   # O_3
 369 1 3   0.551615   0.000000   3.179581  17.520612   # C_3
 370 1 2  -0.784499   0.000000   1.972541  17.171603   # O_3
 371 1 4   0.180119  19.959740   2.248891  14.063852   # H_
 372 1 4   0.062462   0.929655   2.213287  14.209376   # H_
 373 1 3   0.525883  10.350200  17.520819  13.529781   # C_3
 374 1 2  -0.679625  10.350200  18.727859  13.878790   # O_3
 375 1 2  -0.725604  10.350200  17.171810  12.322741   # O_3
 376 1 3  -0.106379  10.350200  16.456818  14.593782   # C_3
 377 1 3  -0.024838  10.350200  15.162836  14.166733   # C_3
 378 1 4   0.049132  10.350200  14.930785  13.050774   # H_
 379 1 5  -0.173860  10.445836  12.697625  14.726886   # N_3
 380 1 3   0.118259  10.350200  14.167768  15.162629   # C_3
 381 1 3  -0.170706  10.350200  14.593782  16.456611   # C_3
 382 1 3   0.053321  10.350200  15.887764  16.882832   # C_3
 383 1 3   0.012175  10.350200  16.883867  15.887764   # C_3
 384 1 4   0.081610  10.350200  17.999826  16.119815   # H_
 385 1 4   0.067752  10.350200  16.119815  17.998791   # H_
 386 1 2  -0.679058  10.350200  13.878790  18.727652   # O_3
 387 1 3   0.547420  10.350200  13.529781  17.520612   # C_3
 388 1 2  -0.722249  10.350200  12.322741  17.171603   # O_3
 389 1 4   0.077085  11.472576  12.609649  14.443290   # H_
 390 1 4   0.073217   9.949233  12.445287  13.833663   # H_
 391 1 3   0.531537  10.350200   7.170619   3.179581   # C_3
 392 1 2  -0.739739  10.350200   8.377659   3.528590   # O_3
 393 1 2  -0.748232  10.350200   6.821610   1.972541   # O_3
 394 1 3  -0.124136  10.350200   6.106618   4.243582   # C_3
 395 1 3  -0.026371  10.350200   4.812636   3.816533   # C_3
 396 1 4   0.035842  10.350200   4.580585   2.700574   # H_
 397 1 5  -0.182415  10.387254   2.364400   4.368405   # N_3
 398 1 3   0.114701  10.350200   3.817568   4.812636   # C_3
 399 1 3  -0.181140  10.350200   4.243582   6.106618   # C_3
 400 1 3   0.039819  10.350200   5.537564   6.532632   # C_3
 401 1 3  -0.000120  10.350200   6.533667   5.537564   # C_3
 402 1 4   0.039881  10.350200   7.649626   5.769615   # H_
 403 1 4   0.032410  10.350200   5.769615   7.648591   # H_
 404 1 2  -0.661146  10.350200   3.528590   8.377452   # O_3
 405 1 3   0.561634  10.350200   3.179581   7.170619   # C_3
 406 1 2  -0.651381  10.350200   1.972541   6.821610   # O_3
 407 1 4   0.060239   9.640797   2.213080   3.659417   # H_
 408 1 4   0.066781  11.335539   2.130071   3.985655   # H_
 409 1 3   0.516689   0.000000  17.520819  17.520819   # C_3
 410 1 2  -0.718972   0.000000  18.727859  17.171810   # O_3
 411 1 2  -0.712326   0.000000  17.171810  18.727859   # O_3
 412 1 3  -0.109215   0.000000  16.456818  16.456818   # C_3
 413 1 3  -0.037356   0.000000  15.162836  16.883867   # C_3
 414 1 4   0.054070   0.000000  14.930785  17.999826   # H_
 415 1 5  -0.186426   0.103916  12.722466  16.267202   # N_3
 416 1 3   0.117047   0.000000  14.167768  15.887971   # C_3
 417 1 3  -0.205713   0.000000  14.593782  14.593989   # C_3
 418 1 3   0.041760   0.000000  15.887764  14.167768   # C_3
 419 1 3  -0.012546   0.000000  16.883867  15.162836   # C_3
 420 1 4   0.049917   0.000000  17.999826  14.930785   # H_
 421 1 4   0.016441   0.000000  16.119815  13.051809   # H_
 422 1 2  -0.801179   0.000000  13.878790  12.322948   # O_3
 423 1 3   0.557022   0.000000  13.529781  13.529988   # C_3
 424 1 2  -0.782299   0.000000  12.322741  13.878997   # O_3
 425 1 4   0.080807   1.112232  12.385877  16.139688   # H_
 426 1 4   0.066274   0.013248  12.704663  17.321888   # H_
 427 1 3   0.532272   0.000000   7.170619   7.170619   # C_3
 428 1 2  -0.703651   0.000000   8.377659   6.821610   # O_3
 429 1 2  -0.692013   0.000000   6.821610   8.377659   # O_3
 430 1 3  -0.133680   0.000000   6.106618   6.106618   # C_3
 431 1 3  -0.043075   0.000000   4.812636   6.533667   # C_3
 432 1 4   0.018982   0.000000   4.580585   7.649626   # H_
 433 1 5  -0.265064   0.030637   2.362537   5.985935   # N_3
 434 1 3   0.101071   0.000000   3.817568   5.537564   # C_3
 435 1 3  -0.199818   0.000000   4.243582   4.243582   # C_3
 436 1 3   0.028875   0.000000   5.537564   3.817568   # C_3
 437 1 3  -0.015068   0.000000   6.533667   4.812636   # C_3
 438 1 4   0.014694   0.000000   7.649626   4.580585   # H_
 439 1 4   0.004091   0.000000   5.769615   2.701609   # H_
 440 1 2  -0.713608   0.000000   3.528590   1.972748   # O_3
 441 1 3   0.563337   0.000000   3.179581   3.179581   # C_3
 442 1 2  -0.695752   0.000000   1.972541   3.528590   # O_3
 443 1 4   0.185658  20.005074   2.202316   6.713554   # H_
 444 1 4   0.069271   0.992377   2.114339   6.324179   # H_
 445 1 3   0.526509  10.350200  17.520819   7.170619   # C_3
 446 1 2  -0.584548  10.350200  18.727859   6.821610   # O_3
 447 1 2  -0.650431  10.350200  17.171810   8.377659   # O_3
 448 1 3  -0.100483  10.350200  16.456818   6.106618   # C_3
 449 1 3  -0.030240  10.350200  15.162836   6.533667   # C_3
 450 1 4   0.045889  10.350200  14.930785   7.649626   # H_
 451 1 5  -0.181049  10.388703  12.705699   5.994215   # N_3
 452 1 3   0.122945  10.350200  14.167768   5.537564   # C_3
 453 1 3  -0.184051  10.350200  14.593782   4.243582   # C_3
 454 1 3   0.051740  10.350200  15.887764   3.817568   # C_3
 455 1 3   0.000347  10.350200  16.883867   4.812636   # C_3
 456 1 4   0.068237  10.350200  17.999826   4.580585   # H_
 457 1 4   0.032420  10.350200  16.119815   2.701609   # H_
 458 1 2  -0.666785  10.350200  13.878790   1.972748   # O_3
 459 1 3   0.566690  10.350200  13.529781   3.179581   # C_3
 460 1 2  -0.651826  10.350200  12.322741   3.528590   # O_3
 461 1 4   0.081753   9.532741  12.422931   6.513174   # H_
 462 1 4   0.078433  11.225827  12.618964   6.621851   # H_
 463 1 3   0.530069  10.350200   7.170619  17.520819   # C_3
 464 1 2  -0.649120  10.350200   8.377659  17.171810   # O_3
 465 1 2  -0.599682  10.350200   6.821610  18.727859   # O_3
 466 1 3  -0.101595  10.350200   6.106618  16.456818   # C_3
 467 1 3  -0.027828  10.350200   4.812636  16.883867   # C_3
 468 1 4   0.068878  10.350200   4.580585  17.999826   # H_
 469 1 5  -0.182290  10.247319   2.367505  16.294113   # N_3
 470 1 3   0.128847  10.350200   3.817568  15.887971   # C_3
 471 1 3  -0.190135  10.350200   4.243582  14.593989   # C_3
 472 1 3   0.045939  10.350200   5.537564  14.167768   # C_3
 473 1 3  -0.004596  10.350200   6.533667  15.162836   # C_3
 474 1 4   0.042181  10.350200   7.649626  14.930785   # H_
 475 1 4   0.029177  10.350200   5.769615  13.051809   # H_
 476 1 2  -0.746938  10.350200   3.528590  12.322948   # O_3
 477 1 3   0.560889  10.350200   3.179581  13.529988   # C_3
 478 1 2  -0.753594  10.350200   1.972541  13.878997   # O_3
 479 1 4   0.087672   9.316629   2.235436  16.783263   # H_
 480 1 4   0.079888  11.013234   2.114960  16.960459   # H_
