 (written by mofun)

992 atoms
0 bonds
0 angles
0 dihedrals
0 impropers

4 atom types
   0.000000  26.896000 xlo xhi
   0.000000  26.896000 ylo yhi
   0.000000  26.896000 zlo zhi

Masses

 1 91.2240   # Zr3+4
 2 15.9994   # O_3
 3 12.0107   # C_3
 4 1.0079   # H_

Pair Coeffs

 1   0.069000   2.783168 # Zr3+4
 2   0.060000   3.118146 # O_3
 3   0.105000   3.430851 # C_3
 4   0.044000   2.571134 # H_

Atoms

 1 1 1   3.187660   2.475508   0.000000   0.000000   # Zr3+4
 2 1 1   3.186880  24.420492   0.000000   0.000000   # Zr3+4
 3 1 1   3.187380   0.000000   2.475508   0.000000   # Zr3+4
 4 1 1   3.186630   0.000000  24.420492   0.000000   # Zr3+4
 5 1 1   3.186980   0.000000   0.000000   2.475508   # Zr3+4
 6 1 1   3.186270   0.000000   0.000000  24.420492   # Zr3+4
 7 1 1   3.214960   2.475508  13.448000  13.448000   # Zr3+4
 8 1 1   3.213740  24.420492  13.448000  13.448000   # Zr3+4
 9 1 1   3.200710   0.000000  15.923508  13.448000   # Zr3+4
 10 1 1   3.200670   0.000000  10.972492  13.448000   # Zr3+4
 11 1 1   3.200680   0.000000  13.448000  15.923508   # Zr3+4
 12 1 1   3.200600   0.000000  13.448000  10.972492   # Zr3+4
 13 1 1   3.201260  15.923508   0.000000  13.448000   # Zr3+4
 14 1 1   3.201220  10.972492   0.000000  13.448000   # Zr3+4
 15 1 1   3.215070  13.448000   2.475508  13.448000   # Zr3+4
 16 1 1   3.213910  13.448000  24.420492  13.448000   # Zr3+4
 17 1 1   3.200990  13.448000   0.000000  15.923508   # Zr3+4
 18 1 1   3.200950  13.448000   0.000000  10.972492   # Zr3+4
 19 1 1   3.201500  15.923508  13.448000   0.000000   # Zr3+4
 20 1 1   3.201460  10.972492  13.448000   0.000000   # Zr3+4
 21 1 1   3.201580  13.448000  15.923508   0.000000   # Zr3+4
 22 1 1   3.201540  13.448000  10.972492   0.000000   # Zr3+4
 23 1 1   3.215420  13.448000  13.448000   2.475508   # Zr3+4
 24 1 1   3.214300  13.448000  13.448000  24.420492   # Zr3+4
 25 1 2  -1.331590   1.221078   1.221078   1.221078   # O_3
 26 1 2  -1.133910  25.674922  25.674922   1.221078   # O_3
 27 1 2  -1.136190  25.674922   1.221078  25.674922   # O_3
 28 1 2  -1.138420   1.221078  25.674922  25.674922   # O_3
 29 1 2  -1.234450   1.221078   1.221078  25.674922   # O_3
 30 1 2  -1.043830  25.674922  25.674922  25.674922   # O_3
 31 1 2  -1.231910   1.221078  25.674922   1.221078   # O_3
 32 1 2  -1.229930  25.674922   1.221078   1.221078   # O_3
 33 1 2  -1.274720   1.221078  14.669078  14.669078   # O_3
 34 1 2  -1.174190  25.674922  12.226922  14.669078   # O_3
 35 1 2  -1.174270  25.674922  14.669078  12.226922   # O_3
 36 1 2  -1.274890   1.221078  12.226922  12.226922   # O_3
 37 1 2  -1.275530   1.221078  14.669078  12.226922   # O_3
 38 1 2  -1.174520  25.674922  12.226922  12.226922   # O_3
 39 1 2  -1.275480   1.221078  12.226922  14.669078   # O_3
 40 1 2  -1.174810  25.674922  14.669078  14.669078   # O_3
 41 1 2  -1.273880  14.669078   1.221078  14.669078   # O_3
 42 1 2  -1.175950  12.226922  25.674922  14.669078   # O_3
 43 1 2  -1.274000  12.226922   1.221078  12.226922   # O_3
 44 1 2  -1.175950  14.669078  25.674922  12.226922   # O_3
 45 1 2  -1.275170  14.669078   1.221078  12.226922   # O_3
 46 1 2  -1.175860  12.226922  25.674922  12.226922   # O_3
 47 1 2  -1.176230  14.669078  25.674922  14.669078   # O_3
 48 1 2  -1.275140  12.226922   1.221078  14.669078   # O_3
 49 1 2  -1.272990  14.669078  14.669078   1.221078   # O_3
 50 1 2  -1.273100  12.226922  12.226922   1.221078   # O_3
 51 1 2  -1.177620  12.226922  14.669078  25.674922   # O_3
 52 1 2  -1.177570  14.669078  12.226922  25.674922   # O_3
 53 1 2  -1.178190  14.669078  14.669078  25.674922   # O_3
 54 1 2  -1.177900  12.226922  12.226922  25.674922   # O_3
 55 1 2  -1.274400  14.669078  12.226922   1.221078   # O_3
 56 1 2  -1.274380  12.226922  14.669078   1.221078   # O_3
 57 1 2  -0.684209   3.566410   0.000000   1.933822   # O_3
 58 1 3   0.500067   3.152211   0.000000   3.152211   # C_3
 59 1 2  -0.684939   1.933822   0.000000   3.566410   # O_3
 60 1 3  -0.201593   4.209224   0.000000   4.209224   # C_3
 61 1 3   0.090577   5.535197   0.000000   3.891851   # C_3
 62 1 3   0.091212   3.891851   0.000000   5.535197   # C_3
 63 1 3  -0.140267   6.508832   0.000000   4.827832   # C_3
 64 1 4  -0.012005   5.779950   0.000000   2.996214   # H_
 65 1 3  -0.141044   4.827832   0.000000   6.508832   # C_3
 66 1 4  -0.012554   2.996214   0.000000   5.779950   # H_
 67 1 3   0.020460   6.204907   0.000000   6.204907   # C_3
 68 1 3   0.106900   7.243093   0.000000   7.243093   # C_3
 69 1 4   0.052147   7.399090   0.000000   4.558872   # H_
 70 1 3  -0.259358   8.620168   0.000000   6.939168   # C_3
 71 1 4   0.053141   4.558872   0.000000   7.399090   # H_
 72 1 3  -0.215868   6.939168   0.000000   8.620168   # C_3
 73 1 3   0.264002   9.556149   0.000000   7.912803   # C_3
 74 1 4   0.103397   8.889128   0.000000   6.048910   # H_
 75 1 3   0.164213   7.912803   0.000000   9.556149   # C_3
 76 1 4   0.082738   6.048910   0.000000   8.889128   # H_
 77 1 3  -0.274958   9.238776   0.000000   9.238776   # C_3
 78 1 3   0.525776  10.295789   0.000000  10.295789   # C_3
 79 1 2  -0.248188  10.944789   0.279718   7.543252   # O_3
 80 1 4  -0.023337   7.668050   0.000000  10.451786   # H_
 81 1 2  -0.663524  11.514178   0.000000   9.881590   # O_3
 82 1 2  -0.673637   9.881590   0.000000  11.514178   # O_3
 83 1 3   0.084319  11.064476   0.871699   6.255472   # C_3
 84 1 3  -0.145613  12.326975   1.507252   5.969836   # C_3
 85 1 4   0.009584  10.349581   1.752543   6.048372   # H_
 86 1 4  -0.025873  10.996430   0.053254   5.514218   # H_
 87 1 4   0.065434  12.164523   2.538982   6.332125   # H_
 88 1 3  -0.003441  12.626596   1.684765   4.481680   # C_3
 89 1 4   0.037986  13.174737   1.008600   6.480053   # H_
 90 1 4   0.006903  11.690077   2.215692   4.101909   # H_
 91 1 4  -0.031127  12.701905   0.691765   3.950753   # H_
 92 1 3  -0.178730  13.840951   2.490032   4.127998   # C_3
 93 1 4   0.051631  13.590549   3.529293   3.881900   # H_
 94 1 4   0.026242  14.350630   2.025000   3.292877   # H_
 95 1 4   0.047077  14.580860   2.546782   4.944023   # H_
 96 1 2  -0.675853  23.329590   0.000000   1.933822   # O_3
 97 1 3   0.487599  23.743789   0.000000   3.152211   # C_3
 98 1 2  -0.606989  24.962178   0.000000   3.566410   # O_3
 99 1 3  -0.171705  22.686776   0.000000   4.209224   # C_3
 100 1 3   0.079775  21.360803   0.000000   3.891851   # C_3
 101 1 3   0.075572  23.004149   0.000000   5.535197   # C_3
 102 1 3  -0.135332  20.387168   0.000000   4.827832   # C_3
 103 1 4  -0.006808  21.116050   0.000000   2.996214   # H_
 104 1 3  -0.123631  22.068168   0.000000   6.508832   # C_3
 105 1 4   0.026308  23.899786   0.000000   5.779950   # H_
 106 1 3   0.031535  20.691093   0.000000   6.204907   # C_3
 107 1 3   0.054276  19.652907   0.000000   7.243093   # C_3
 108 1 4   0.047204  19.496910   0.000000   4.558872   # H_
 109 1 3  -0.164829  18.275832   0.000000   6.939168   # C_3
 110 1 4   0.049728  22.337128   0.000000   7.399090   # H_
 111 1 3  -0.160575  19.956832   0.000000   8.620168   # C_3
 112 1 3   0.099137  17.339851   0.000000   7.912803   # C_3
 113 1 4   0.044141  18.006872   0.000000   6.048910   # H_
 114 1 3   0.097978  18.983197   0.000000   9.556149   # C_3
 115 1 4   0.046356  20.847090   0.000000   8.889128   # H_
 116 1 3  -0.205032  17.657224   0.000000   9.238776   # C_3
 117 1 3   0.494745  16.600211   0.000000  10.295789   # C_3
 118 1 2  -0.070680  15.951211  26.616282   7.543252   # O_3
 119 1 4  -0.019839  19.227950   0.000000  10.451786   # H_
 120 1 2  -0.674982  15.381822   0.000000   9.881590   # O_3
 121 1 2  -0.671011  17.014410   0.000000  11.514178   # O_3
 122 1 3   0.051701  15.831524  26.024301   6.255472   # C_3
 123 1 3  -0.119158  14.569025  25.388748   5.969836   # C_3
 124 1 4   0.052703  16.546419  25.143188   6.048372   # H_
 125 1 4   0.072857  15.899570  26.842746   5.514218   # H_
 126 1 4   0.065206  14.731477  24.357018   6.332125   # H_
 127 1 3   0.001191  14.269404  25.211235   4.481680   # C_3
 128 1 4   0.111567  13.721263  25.887400   6.480053   # H_
 129 1 4   0.026720  15.205923  24.680308   4.101909   # H_
 130 1 4   0.060518  14.194095  26.204235   3.950753   # H_
 131 1 3  -0.181777  13.055049  24.405968   4.127998   # C_3
 132 1 4   0.058216  13.305451  23.366707   3.881900   # H_
 133 1 4   0.080361  12.545370  24.871000   3.292877   # H_
 134 1 4   0.089344  12.315140  24.349218   4.944023   # H_
 135 1 2  -0.600213  23.329590   0.000000  24.962178   # O_3
 136 1 3   0.470463  23.743789   0.000000  23.743789   # C_3
 137 1 2  -0.598148  24.962178   0.000000  23.329590   # O_3
 138 1 3  -0.124248  22.686776   0.000000  22.686776   # C_3
 139 1 3   0.044951  21.360803   0.000000  23.004149   # C_3
 140 1 3   0.043785  23.004149   0.000000  21.360803   # C_3
 141 1 3  -0.083018  20.387168   0.000000  22.068168   # C_3
 142 1 4   0.043358  21.116050   0.000000  23.899786   # H_
 143 1 3  -0.082476  22.068168   0.000000  20.387168   # C_3
 144 1 4   0.042608  23.899786   0.000000  21.116050   # H_
 145 1 3  -0.006933  20.691093   0.000000  20.691093   # C_3
 146 1 3   0.133951  19.652907   0.000000  19.652907   # C_3
 147 1 4   0.052517  19.496910   0.000000  22.337128   # H_
 148 1 3  -0.272475  18.275832   0.000000  19.956832   # C_3
 149 1 4   0.048126  22.337128   0.000000  19.496910   # H_
 150 1 3  -0.229731  19.956832   0.000000  18.275832   # C_3
 151 1 3   0.274940  17.339851   0.000000  18.983197   # C_3
 152 1 4   0.116729  18.006872   0.000000  20.847090   # H_
 153 1 3   0.178706  18.983197   0.000000  17.339851   # C_3
 154 1 4   0.092899  20.847090   0.000000  18.006872   # H_
 155 1 3  -0.281954  17.657224   0.000000  17.657224   # C_3
 156 1 3   0.529118  16.600211   0.000000  16.600211   # C_3
 157 1 2  -0.248003  15.951211   0.279718  19.352479   # O_3
 158 1 4  -0.027173  19.227950   0.000000  16.444214   # H_
 159 1 2  -0.663745  15.381822   0.000000  17.014410   # O_3
 160 1 2  -0.673752  17.014410   0.000000  15.381822   # O_3
 161 1 3   0.081223  15.831524   0.871699  20.640528   # C_3
 162 1 3  -0.142789  14.569025   1.507252  20.925895   # C_3
 163 1 4   0.018317  16.546419   1.752543  20.847628   # H_
 164 1 4  -0.017360  15.899570   0.053254  21.381513   # H_
 165 1 4   0.066801  14.731477   2.538982  20.563875   # H_
 166 1 3  -0.004121  14.269404   1.684765  22.414320   # C_3
 167 1 4   0.037945  13.721263   1.008600  20.415947   # H_
 168 1 4   0.024897  15.205923   2.215692  22.794091   # H_
 169 1 4  -0.014514  14.194095   0.691765  22.944978   # H_
 170 1 3  -0.181311  13.055049   2.490032  22.768002   # C_3
 171 1 4   0.059400  13.305451   3.529293  23.014100   # H_
 172 1 4   0.049649  12.545370   2.025000  23.603123   # H_
 173 1 4   0.052657  12.315140   2.546782  21.951977   # H_
 174 1 2  -0.609367   3.566410   0.000000  24.962178   # O_3
 175 1 3   0.488843   3.152211   0.000000  23.743789   # C_3
 176 1 2  -0.677153   1.933822   0.000000  23.329590   # O_3
 177 1 3  -0.174306   4.209224   0.000000  22.686776   # C_3
 178 1 3   0.081241   5.535197   0.000000  23.004149   # C_3
 179 1 3   0.080424   3.891851   0.000000  21.360803   # C_3
 180 1 3  -0.129101   6.508832   0.000000  22.068168   # C_3
 181 1 4   0.026927   5.779950   0.000000  23.899786   # H_
 182 1 3  -0.134779   4.827832   0.000000  20.387168   # C_3
 183 1 4  -0.009009   2.996214   0.000000  21.116050   # H_
 184 1 3   0.033689   6.204907   0.000000  20.691093   # C_3
 185 1 3   0.055435   7.243093   0.000000  19.652907   # C_3
 186 1 4   0.061522   7.399090   0.000000  22.337128   # H_
 187 1 3  -0.166447   8.620168   0.000000  19.956832   # C_3
 188 1 4   0.041672   4.558872   0.000000  19.496910   # H_
 189 1 3  -0.161786   6.939168   0.000000  18.275832   # C_3
 190 1 3   0.101961   9.556149   0.000000  18.983197   # C_3
 191 1 4   0.050997   8.889128   0.000000  20.847090   # H_
 192 1 3   0.098641   7.912803   0.000000  17.339851   # C_3
 193 1 4   0.043961   6.048910   0.000000  18.006872   # H_
 194 1 3  -0.206051   9.238776   0.000000  17.657224   # C_3
 195 1 3   0.495205  10.295789   0.000000  16.600211   # C_3
 196 1 2  -0.070623  10.944789  26.616282  19.352479   # O_3
 197 1 4  -0.020577   7.668050   0.000000  16.444214   # H_
 198 1 2  -0.674799  11.514178   0.000000  17.014410   # O_3
 199 1 2  -0.671237   9.881590   0.000000  15.381822   # O_3
 200 1 3   0.049064  11.064476  26.024301  20.640528   # C_3
 201 1 3  -0.116978  12.326975  25.388748  20.925895   # C_3
 202 1 4   0.058531  10.349581  25.143188  20.847628   # H_
 203 1 4   0.079502  10.996430  26.842746  21.381513   # H_
 204 1 4   0.065732  12.164523  24.357018  20.563875   # H_
 205 1 3   0.001026  12.626596  25.211235  22.414320   # C_3
 206 1 4   0.110764  13.174737  25.887400  20.415947   # H_
 207 1 4   0.042946  11.690077  24.680308  22.794091   # H_
 208 1 4   0.075175  12.701905  26.204235  22.944978   # H_
 209 1 3  -0.185153  13.840951  24.405968  22.768002   # C_3
 210 1 4   0.066239  13.590549  23.366707  23.014100   # H_
 211 1 4   0.103356  14.350630  24.871000  23.603123   # H_
 212 1 4   0.095599  14.580860  24.349218  21.951977   # H_
 213 1 2  -0.682993   1.933822   3.566410   0.000000   # O_3
 214 1 3   0.499799   3.152211   3.152211   0.000000   # C_3
 215 1 2  -0.683431   3.566410   1.933822   0.000000   # O_3
 216 1 3  -0.200768   4.209224   4.209224   0.000000   # C_3
 217 1 3   0.090792   3.891851   5.535197   0.000000   # C_3
 218 1 3   0.088983   5.535197   3.891851   0.000000   # C_3
 219 1 3  -0.142593   4.827832   6.508832   0.000000   # C_3
 220 1 4  -0.011273   2.996214   5.779950   0.000000   # H_
 221 1 3  -0.140901   6.508832   4.827832   0.000000   # C_3
 222 1 4  -0.012981   5.779950   2.996214   0.000000   # H_
 223 1 3   0.025713   6.204907   6.204907   0.000000   # C_3
 224 1 3   0.084644   7.243093   7.243093   0.000000   # C_3
 225 1 4   0.051061   4.558872   7.399090   0.000000   # H_
 226 1 3  -0.225732   6.939168   8.620168   0.000000   # C_3
 227 1 4   0.044133   7.399090   4.558872   0.000000   # H_
 228 1 3  -0.189833   8.620168   6.939168   0.000000   # C_3
 229 1 3   0.221200   7.912803   9.556149   0.000000   # C_3
 230 1 4   0.080251   6.048910   8.889128   0.000000   # H_
 231 1 3   0.137025   9.556149   7.912803   0.000000   # C_3
 232 1 4   0.061498   8.889128   6.048910   0.000000   # H_
 233 1 3  -0.250260   9.238776   9.238776   0.000000   # C_3
 234 1 3   0.516373  10.295789  10.295789   0.000000   # C_3
 235 1 2  -0.201540   7.509094  10.969803   0.327593   # O_3
 236 1 4  -0.017775  10.451786   7.668050   0.000000   # H_
 237 1 2  -0.661150   9.881590  11.514178   0.000000   # O_3
 238 1 2  -0.670937  11.514178   9.881590   0.000000   # O_3
 239 1 3  -0.127646   6.150577  11.139785   0.772991   # C_3
 240 1 3  -0.069922   5.869783  12.443972   1.542486   # C_3
 241 1 4   0.050470   5.874086  10.370829   1.474977   # H_
 242 1 4   0.156497   5.491087  11.033008  26.784651   # H_
 243 1 4   0.047002   6.090061  12.205136   2.611871   # H_
 244 1 3  -0.049159   4.380283  12.767800   1.570995   # C_3
 245 1 4   0.031570   6.433254  13.303568   1.165404   # H_
 246 1 4   0.016086   3.998359  12.046987   2.319242   # H_
 247 1 4  -0.028522   3.851507  12.570652   0.629366   # H_
 248 1 3  -0.155556   3.943223  14.145951   2.117791   # C_3
 249 1 4   0.030139   4.146018  14.948259   1.407468   # H_
 250 1 4   0.050043   4.423585  14.381829   3.084702   # H_
 251 1 4   0.022868   2.850438  14.086511   2.259802   # H_
 252 1 2  -0.674567   1.933822  23.329590   0.000000   # O_3
 253 1 3   0.488511   3.152211  23.743789   0.000000   # C_3
 254 1 2  -0.606162   3.566410  24.962178   0.000000   # O_3
 255 1 3  -0.171806   4.209224  22.686776   0.000000   # C_3
 256 1 3   0.081510   3.891851  21.360803   0.000000   # C_3
 257 1 3   0.080301   5.535197  23.004149   0.000000   # C_3
 258 1 3  -0.133520   4.827832  20.387168   0.000000   # C_3
 259 1 4  -0.004874   2.996214  21.116050   0.000000   # H_
 260 1 3  -0.124761   6.508832  22.068168   0.000000   # C_3
 261 1 4   0.029843   5.779950  23.899786   0.000000   # H_
 262 1 3   0.030383   6.204907  20.691093   0.000000   # C_3
 263 1 3   0.073632   7.243093  19.652907   0.000000   # C_3
 264 1 4   0.051639   4.558872  19.496910   0.000000   # H_
 265 1 3  -0.185802   6.939168  18.275832   0.000000   # C_3
 266 1 4   0.064033   7.399090  22.337128   0.000000   # H_
 267 1 3  -0.184752   8.620168  19.956832   0.000000   # C_3
 268 1 3   0.129087   7.912803  17.339851   0.000000   # C_3
 269 1 4   0.065414   6.048910  18.006872   0.000000   # H_
 270 1 3   0.124520   9.556149  18.983197   0.000000   # C_3
 271 1 4   0.069878   8.889128  20.847090   0.000000   # H_
 272 1 3  -0.223161   9.238776  17.657224   0.000000   # C_3
 273 1 3   0.502311  10.295789  16.600211   0.000000   # C_3
 274 1 2  -0.098305   7.509094  15.926197  26.568407   # O_3
 275 1 4  -0.030558  10.451786  19.227950   0.000000   # H_
 276 1 2  -0.672023   9.881590  15.381822   0.000000   # O_3
 277 1 2  -0.672043  11.514178  17.014410   0.000000   # O_3
 278 1 3   0.215381   6.150577  15.756215  26.123009   # C_3
 279 1 3  -0.152098   5.869783  14.452028  25.353514   # C_3
 280 1 4   0.021887   5.874086  16.525171  25.421023   # H_
 281 1 4  -0.102666   5.491087  15.862992   0.111349   # H_
 282 1 4   0.069292   6.090061  14.690864  24.284129   # H_
 283 1 3   0.006822   4.380283  14.128200  25.325005   # C_3
 284 1 4   0.117132   6.433254  13.592432  25.730596   # H_
 285 1 4   0.029779   3.998359  14.849013  24.576758   # H_
 286 1 4   0.070651   3.851507  14.325348  26.266634   # H_
 287 1 3  -0.175702   3.943223  12.750049  24.778209   # C_3
 288 1 4   0.091946   4.146018  11.947741  25.488532   # H_
 289 1 4   0.066970   4.423585  12.514171  23.811298   # H_
 290 1 4   0.066481   2.850438  12.809489  24.636198   # H_
 291 1 2  -0.595604  24.962178  23.329590   0.000000   # O_3
 292 1 3   0.470153  23.743789  23.743789   0.000000   # C_3
 293 1 2  -0.597690  23.329590  24.962178   0.000000   # O_3
 294 1 3  -0.122963  22.686776  22.686776   0.000000   # C_3
 295 1 3   0.045955  23.004149  21.360803   0.000000   # C_3
 296 1 3   0.042972  21.360803  23.004149   0.000000   # C_3
 297 1 3  -0.084728  22.068168  20.387168   0.000000   # C_3
 298 1 4   0.046299  23.899786  21.116050   0.000000   # H_
 299 1 3  -0.082379  20.387168  22.068168   0.000000   # C_3
 300 1 4   0.043003  21.116050  23.899786   0.000000   # H_
 301 1 3  -0.000464  20.691093  20.691093   0.000000   # C_3
 302 1 3   0.113332  19.652907  19.652907   0.000000   # C_3
 303 1 4   0.053617  22.337128  19.496910   0.000000   # H_
 304 1 3  -0.239234  19.956832  18.275832   0.000000   # C_3
 305 1 4   0.042371  19.496910  22.337128   0.000000   # H_
 306 1 3  -0.204315  18.275832  19.956832   0.000000   # C_3
 307 1 3   0.233406  18.983197  17.339851   0.000000   # C_3
 308 1 4   0.095117  20.847090  18.006872   0.000000   # H_
 309 1 3   0.153105  17.339851  18.983197   0.000000   # C_3
 310 1 4   0.073693  18.006872  20.847090   0.000000   # H_
 311 1 3  -0.257684  17.657224  17.657224   0.000000   # C_3
 312 1 3   0.520126  16.600211  16.600211   0.000000   # C_3
 313 1 2  -0.201405  19.386906  15.926197   0.327593   # O_3
 314 1 4  -0.021771  16.444214  19.227950   0.000000   # H_
 315 1 2  -0.661285  17.014410  15.381822   0.000000   # O_3
 316 1 2  -0.670981  15.381822  17.014410   0.000000   # O_3
 317 1 3  -0.128154  20.745423  15.756215   0.772991   # C_3
 318 1 3  -0.067753  21.026217  14.452028   1.542486   # C_3
 319 1 4   0.060920  21.021914  16.525171   1.474977   # H_
 320 1 4   0.162182  21.404913  15.862992  26.784651   # H_
 321 1 4   0.051045  20.805939  14.690864   2.611871   # H_
 322 1 3  -0.049277  22.515717  14.128200   1.570995   # C_3
 323 1 4   0.031638  20.462477  13.592432   1.165404   # H_
 324 1 4   0.041227  22.897641  14.849013   2.319242   # H_
 325 1 4  -0.008614  23.044493  14.325348   0.629366   # H_
 326 1 3  -0.165223  22.952777  12.750049   2.117791   # C_3
 327 1 4   0.048392  22.749982  11.947741   1.407468   # H_
 328 1 4   0.067368  22.472415  12.514171   3.084702   # H_
 329 1 4   0.071385  24.045562  12.809489   2.259802   # H_
 330 1 2  -0.604184  24.962178   3.566410   0.000000   # O_3
 331 1 3   0.488601  23.743789   3.152211   0.000000   # C_3
 332 1 2  -0.674669  23.329590   1.933822   0.000000   # O_3
 333 1 3  -0.171774  22.686776   4.209224   0.000000   # C_3
 334 1 3   0.081587  23.004149   5.535197   0.000000   # C_3
 335 1 3   0.082525  21.360803   3.891851   0.000000   # C_3
 336 1 3  -0.124965  22.068168   6.508832   0.000000   # C_3
 337 1 4   0.031905  23.899786   5.779950   0.000000   # H_
 338 1 3  -0.134197  20.387168   4.827832   0.000000   # C_3
 339 1 4  -0.005530  21.116050   2.996214   0.000000   # H_
 340 1 3   0.031306  20.691093   6.204907   0.000000   # C_3
 341 1 3   0.075458  19.652907   7.243093   0.000000   # C_3
 342 1 4   0.067411  22.337128   7.399090   0.000000   # H_
 343 1 3  -0.187478  19.956832   8.620168   0.000000   # C_3
 344 1 4   0.052829  19.496910   4.558872   0.000000   # H_
 345 1 3  -0.186435  18.275832   6.939168   0.000000   # C_3
 346 1 3   0.132101  18.983197   9.556149   0.000000   # C_3
 347 1 4   0.073229  20.847090   8.889128   0.000000   # H_
 348 1 3   0.125135  17.339851   7.912803   0.000000   # C_3
 349 1 4   0.066521  18.006872   6.048910   0.000000   # H_
 350 1 3  -0.224185  17.657224   9.238776   0.000000   # C_3
 351 1 3   0.502799  16.600211  10.295789   0.000000   # C_3
 352 1 2  -0.097546  19.386906  10.969803  26.568407   # O_3
 353 1 4  -0.031555  16.444214   7.668050   0.000000   # H_
 354 1 2  -0.671788  17.014410  11.514178   0.000000   # O_3
 355 1 2  -0.672336  15.381822   9.881590   0.000000   # O_3
 356 1 3   0.209921  20.745423  11.139785  26.123009   # C_3
 357 1 3  -0.149056  21.026217  12.443972  25.353514   # C_3
 358 1 4   0.031189  21.021914  10.370829  25.421023   # H_
 359 1 4  -0.093827  21.404913  11.033008   0.111349   # H_
 360 1 4   0.072282  20.805939  12.205136  24.284129   # H_
 361 1 3   0.006536  22.515717  12.767800  25.325005   # C_3
 362 1 4   0.116355  20.462477  13.303568  25.730596   # H_
 363 1 4   0.053408  22.897641  12.046987  24.576758   # H_
 364 1 4   0.088366  23.044493  12.570652  26.266634   # H_
 365 1 3  -0.185764  22.952777  14.145951  24.778209   # C_3
 366 1 4   0.110114  22.749982  14.948259  25.488532   # H_
 367 1 4   0.085305  22.472415  14.381829  23.811298   # H_
 368 1 4   0.114327  24.045562  14.086511  24.636198   # H_
 369 1 2  -0.686191   0.000000   1.933822   3.566410   # O_3
 370 1 3   0.499918   0.000000   3.152211   3.152211   # C_3
 371 1 2  -0.684856   0.000000   3.566410   1.933822   # O_3
 372 1 3  -0.202965   0.000000   4.209224   4.209224   # C_3
 373 1 3   0.090315   0.000000   3.891851   5.535197   # C_3
 374 1 3   0.091911   0.000000   5.535197   3.891851   # C_3
 375 1 3  -0.143369   0.000000   4.827832   6.508832   # C_3
 376 1 4  -0.015236   0.000000   2.996214   5.779950   # H_
 377 1 3  -0.143789   0.000000   6.508832   4.827832   # C_3
 378 1 4  -0.011952   0.000000   5.779950   2.996214   # H_
 379 1 3   0.023474   0.000000   6.204907   6.204907   # C_3
 380 1 3   0.093473   0.000000   7.243093   7.243093   # C_3
 381 1 4   0.046280   0.000000   4.558872   7.399090   # H_
 382 1 3  -0.239933   0.000000   6.939168   8.620168   # C_3
 383 1 4   0.053598   0.000000   7.399090   4.558872   # H_
 384 1 3  -0.205244   0.000000   8.620168   6.939168   # C_3
 385 1 3   0.225856   0.000000   7.912803   9.556149   # C_3
 386 1 4   0.085482   0.000000   6.048910   8.889128   # H_
 387 1 3   0.151607   0.000000   9.556149   7.912803   # C_3
 388 1 4   0.077248   0.000000   8.889128   6.048910   # H_
 389 1 3  -0.261866   0.000000   9.238776   9.238776   # C_3
 390 1 3   0.519763   0.000000  10.295789  10.295789   # C_3
 391 1 2  -0.215603   0.440288   7.587362  10.942907   # O_3
 392 1 4  -0.027199   0.000000  10.451786   7.668050   # H_
 393 1 2  -0.666093   0.000000   9.881590  11.514178   # O_3
 394 1 2  -0.682122   0.000000  11.514178   9.881590   # O_3
 395 1 3  -0.064116   0.662180   6.254934  11.353608   # C_3
 396 1 3  -0.022868  26.175456   5.637671  11.540267   # C_3
 397 1 4   0.023120   1.278098   6.183659  12.285017   # H_
 398 1 4   0.036684   1.260616   5.846921  10.533818   # H_
 399 1 4   0.067565  25.905958   5.776454  12.614493   # H_
 400 1 3   0.130481  26.209614   4.127998  11.287175   # C_3
 401 1 4   0.090052  25.513546   6.176666  10.888039   # H_
 402 1 4   0.024998  26.277123   3.564258  12.266997   # H_
 403 1 4  -0.100024   0.207368   3.901534  10.642478   # H_
 404 1 3  -0.206319  24.985039   3.657049  10.443986   # C_3
 405 1 4   0.108184  25.417527   3.465819   9.440765   # H_
 406 1 4   0.079153  24.159332   4.402068  10.342319   # H_
 407 1 4   0.062707  24.563310   2.704931  10.844198   # H_
 408 1 2  -0.677979   0.000000   1.933822  23.329590   # O_3
 409 1 3   0.490106   0.000000   3.152211  23.743789   # C_3
 410 1 2  -0.609789   0.000000   3.566410  24.962178   # O_3
 411 1 3  -0.177530   0.000000   4.209224  22.686776   # C_3
 412 1 3   0.086346   0.000000   3.891851  21.360803   # C_3
 413 1 3   0.086853   0.000000   5.535197  23.004149   # C_3
 414 1 3  -0.139705   0.000000   4.827832  20.387168   # C_3
 415 1 4  -0.009681   0.000000   2.996214  21.116050   # H_
 416 1 3  -0.132323   0.000000   6.508832  22.068168   # C_3
 417 1 4   0.027740   0.000000   5.779950  23.899786   # H_
 418 1 3   0.037732   0.000000   6.204907  20.691093   # C_3
 419 1 3   0.064712   0.000000   7.243093  19.652907   # C_3
 420 1 4   0.050353   0.000000   4.558872  19.496910   # H_
 421 1 3  -0.174916   0.000000   6.939168  18.275832   # C_3
 422 1 4   0.070985   0.000000   7.399090  22.337128   # H_
 423 1 3  -0.168717   0.000000   8.620168  19.956832   # C_3
 424 1 3   0.115326   0.000000   7.912803  17.339851   # C_3
 425 1 4   0.057305   0.000000   6.048910  18.006872   # H_
 426 1 3   0.113386   0.000000   9.556149  18.983197   # C_3
 427 1 4   0.076718   0.000000   8.889128  20.847090   # H_
 428 1 3  -0.213814   0.000000   9.238776  17.657224   # C_3
 429 1 3   0.499345   0.000000  10.295789  16.600211   # C_3
 430 1 2  -0.085505  26.455712   7.587362  15.953093   # O_3
 431 1 4  -0.008923   0.000000  10.451786  19.227950   # H_
 432 1 2  -0.675170   0.000000   9.881590  15.381822   # O_3
 433 1 2  -0.676136   0.000000  11.514178  17.014410   # O_3
 434 1 3   0.162393  26.233820   6.254934  15.542392   # C_3
 435 1 3  -0.208201   0.720544   5.637671  15.355733   # C_3
 436 1 4   0.021649  25.617902   6.183659  14.610983   # H_
 437 1 4   0.036508  25.635384   5.846921  16.362182   # H_
 438 1 4   0.042928   0.990042   5.776454  14.281507   # H_
 439 1 3  -0.165467   0.686386   4.127998  15.608825   # C_3
 440 1 4   0.074009   1.382454   6.176666  16.007961   # H_
 441 1 4   0.001397   0.618877   3.564258  14.629003   # H_
 442 1 4   0.149750  26.688632   3.901534  16.253522   # H_
 443 1 3  -0.112755   1.910961   3.657049  16.452014   # C_3
 444 1 4   0.015025   1.478473   3.465819  17.455235   # H_
 445 1 4   0.048414   2.736668   4.402068  16.553681   # H_
 446 1 4   0.018389   2.332690   2.704931  16.051802   # H_
 447 1 2  -0.600980   0.000000  24.962178  23.329590   # O_3
 448 1 3   0.470925   0.000000  23.743789  23.743789   # C_3
 449 1 2  -0.601040   0.000000  23.329590  24.962178   # O_3
 450 1 3  -0.127024   0.000000  22.686776  22.686776   # C_3
 451 1 3   0.044496   0.000000  23.004149  21.360803   # C_3
 452 1 3   0.048165   0.000000  21.360803  23.004149   # C_3
 453 1 3  -0.086242   0.000000  22.068168  20.387168   # C_3
 454 1 4   0.039233   0.000000  23.899786  21.116050   # H_
 455 1 3  -0.088005   0.000000  20.387168  22.068168   # C_3
 456 1 4   0.043318   0.000000  21.116050  23.899786   # H_
 457 1 3  -0.002351   0.000000  20.691093  20.691093   # C_3
 458 1 3   0.120683   0.000000  19.652907  19.652907   # C_3
 459 1 4   0.042131   0.000000  22.337128  19.496910   # H_
 460 1 3  -0.251536   0.000000  19.956832  18.275832   # C_3
 461 1 4   0.056546   0.000000  19.496910  22.337128   # H_
 462 1 3  -0.219344   0.000000  18.275832  19.956832   # C_3
 463 1 3   0.235896   0.000000  18.983197  17.339851   # C_3
 464 1 4   0.094789   0.000000  20.847090  18.006872   # H_
 465 1 3   0.167829   0.000000  17.339851  18.983197   # C_3
 466 1 4   0.095846   0.000000  18.006872  20.847090   # H_
 467 1 3  -0.268035   0.000000  17.657224  17.657224   # C_3
 468 1 3   0.523045   0.000000  16.600211  16.600211   # C_3
 469 1 2  -0.216188   0.440288  19.308369  15.953093   # O_3
 470 1 4  -0.026716   0.000000  16.444214  19.227950   # H_
 471 1 2  -0.666171   0.000000  17.014410  15.381822   # O_3
 472 1 2  -0.680754   0.000000  15.381822  17.014410   # O_3
 473 1 3  -0.062733   0.662180  20.641066  15.542392   # C_3
 474 1 3  -0.025322  26.175456  21.258329  15.355733   # C_3
 475 1 4   0.025142   1.278098  20.712341  14.610983   # H_
 476 1 4   0.041410   1.260616  21.049079  16.362182   # H_
 477 1 4   0.069084  25.905958  21.119277  14.281507   # H_
 478 1 3   0.131529  26.209614  22.768002  15.608825   # C_3
 479 1 4   0.092208  25.513546  20.719334  16.007961   # H_
 480 1 4   0.041908  26.277123  23.331742  14.629003   # H_
 481 1 4  -0.083659   0.207368  22.994466  16.253522   # H_
 482 1 3  -0.212059  24.985039  23.238951  16.452014   # C_3
 483 1 4   0.136987  25.417527  23.430181  17.455235   # H_
 484 1 4   0.094146  24.159332  22.493932  16.553681   # H_
 485 1 4   0.098552  24.563310  24.191069  16.051802   # H_
 486 1 2  -0.609246   0.000000  24.962178   3.566410   # O_3
 487 1 3   0.488862   0.000000  23.743789   3.152211   # C_3
 488 1 2  -0.676489   0.000000  23.329590   1.933822   # O_3