 (written by mofun)

1056 atoms
0 bonds
0 angles
0 dihedrals
0 impropers

4 atom types
   0.000000  20.700400 xlo xhi
   0.000000  20.700400 ylo yhi
   0.000000  20.700400 zlo zhi

Masses

 1 91.2240   # Zr3+4
 2 15.9994   # O_3
 3 12.0107   # C_3
 4 1.0079   # H_

Pair Coeffs

 1   0.069000   2.783168 # Zr3+4
 2   0.060000   3.118146 # O_3
 3   0.105000   3.430851 # C_3
 4   0.044000   2.571134 # H_

Atoms

 1 1 1   3.174820   2.481771   0.000000   0.000000   # Zr3+4
 2 1 1   3.190500   2.481771  10.350200  10.350200   # Zr3+4
 3 1 1   3.180940  12.831971   0.000000  10.350200   # Zr3+4
 4 1 1   3.183610  12.831971  10.350200   0.000000   # Zr3+4
 5 1 1   3.172650  18.218629   0.000000   0.000000   # Zr3+4
 6 1 1   3.190980  18.218629  10.350200  10.350200   # Zr3+4
 7 1 1   3.181880   7.868429   0.000000  10.350200   # Zr3+4
 8 1 1   3.181310   7.868429  10.350200   0.000000   # Zr3+4
 9 1 1   3.175840   0.000000   2.481771   0.000000   # Zr3+4
 10 1 1   3.148340   0.000000  12.831971  10.350200   # Zr3+4
 11 1 1   3.190540  10.350200   2.481771  10.350200   # Zr3+4
 12 1 1   3.183870  10.350200  12.831971   0.000000   # Zr3+4
 13 1 1   3.174430   0.000000  18.218629   0.000000   # Zr3+4
 14 1 1   3.215600   0.000000   7.868429  10.350200   # Zr3+4
 15 1 1   3.191060  10.350200  18.218629  10.350200   # Zr3+4
 16 1 1   3.183520  10.350200   7.868429   0.000000   # Zr3+4
 17 1 1   3.205440   0.000000   0.000000   2.481771   # Zr3+4
 18 1 1   3.181780   0.000000  10.350200  12.831971   # Zr3+4
 19 1 1   3.147900  10.350200   0.000000  12.831971   # Zr3+4
 20 1 1   3.191070  10.350200  10.350200   2.481771   # Zr3+4
 21 1 1   3.141170   0.000000   0.000000  18.218629   # Zr3+4
 22 1 1   3.182130   0.000000  10.350200   7.868429   # Zr3+4
 23 1 1   3.214510  10.350200   0.000000   7.868429   # Zr3+4
 24 1 1   3.191600  10.350200  10.350200  18.218629   # Zr3+4
 25 1 2  -1.305230   1.161292   9.188908   9.188908   # O_3
 26 1 2  -1.238270  11.511492  19.539108   9.188908   # O_3
 27 1 2  -1.347240  11.511492   9.188908  19.539108   # O_3
 28 1 2  -1.305940   9.188908   1.161292   9.188908   # O_3
 29 1 2  -1.349090   9.188908  11.511492  19.539108   # O_3
 30 1 2  -1.210110  19.539108  19.539108   1.161292   # O_3
 31 1 2  -1.239640  19.539108   9.188908  11.511492   # O_3
 32 1 2  -1.341810   1.161292   1.161292   1.161292   # O_3
 33 1 2  -1.411370  11.511492  11.511492   1.161292   # O_3
 34 1 2  -1.369300  19.539108   1.161292   1.161292   # O_3
 35 1 2  -1.468250  19.539108  11.511492  11.511492   # O_3
 36 1 2  -1.533040   9.188908   1.161292  11.511492   # O_3
 37 1 2  -1.418560   9.188908  11.511492   1.161292   # O_3
 38 1 2  -1.363200   1.161292  19.539108   1.161292   # O_3
 39 1 2  -1.398700   1.161292   9.188908  11.511492   # O_3
 40 1 2  -1.465900  11.511492  19.539108  11.511492   # O_3
 41 1 2  -1.415840  11.511492   9.188908   1.161292   # O_3
 42 1 2  -1.366490  19.539108  19.539108  19.539108   # O_3
 43 1 2  -1.328280  19.539108   9.188908   9.188908   # O_3
 44 1 2  -1.327340   9.188908  19.539108   9.188908   # O_3
 45 1 2  -1.354960   9.188908   9.188908  19.539108   # O_3
 46 1 2  -1.497050   1.161292   1.161292  19.539108   # O_3
 47 1 2  -1.535870   1.161292  11.511492   9.188908   # O_3
 48 1 2  -1.400900  11.511492   1.161292   9.188908   # O_3
 49 1 3   0.543409   3.179581   0.000000  17.520819   # C_3
 50 1 2  -0.738254   3.528590   0.000000  18.727859   # O_3
 51 1 2  -0.783995   1.972541   0.000000  17.171810   # O_3
 52 1 3  -0.197713   4.243582   0.000000  16.456818   # C_3
 53 1 3  -0.043910   3.816533   0.000000  15.162836   # C_3
 54 1 4   0.040651   2.700574   0.000000  14.930785   # H_
 55 1 2  -0.331762   4.417258   0.327894  12.827831   # O_3
 56 1 3   0.165631   4.812636   0.000000  14.167768   # C_3
 57 1 3  -0.215589   6.106618   0.000000  14.593782   # C_3
 58 1 3  -0.026479   6.532632   0.000000  15.887764   # C_3
 59 1 3   0.143677   5.537564   0.000000  16.883867   # C_3
 60 1 2  -0.294176   5.986556   0.215284  18.257132   # O_3
 61 1 4   0.022289   7.648591   0.000000  16.119815   # H_
 62 1 2  -0.795707   8.377452   0.000000  13.878790   # O_3
 63 1 3   0.556099   7.170619   0.000000  13.529781   # C_3
 64 1 2  -0.777771   6.821610   0.000000  12.322741   # O_3
 65 1 3   0.404765   4.371717  20.013147  11.895485   # C_3
 66 1 3  -0.544056   4.549327   0.035191  10.583287   # C_3
 67 1 4  -0.032285   5.131008  19.219079  12.107043   # H_
 68 1 4  -0.056216   3.461314  19.525238  11.856775   # H_
 69 1 4   0.142215   5.205530   0.795930  10.797122   # H_
 70 1 3   0.130745   3.374372   0.776058   9.863327   # C_3
 71 1 4   0.214891   5.046758  20.100709   9.959997   # H_
 72 1 4  -0.002488   2.927244   1.412388  10.658222   # H_
 73 1 4  -0.052732   2.642613   0.025875   9.624651   # H_
 74 1 3  -0.254083   3.734352   1.760362   8.590045   # C_3
 75 1 3   0.237723   6.003323  19.952495  19.246197   # C_3
 76 1 3  -0.145213   5.522039   0.112403  20.436470   # C_3
 77 1 4   0.016924   7.036480  19.613836  19.407039   # H_
 78 1 4   0.033878   5.330560  19.079145  19.032362   # H_
 79 1 4   0.112132   5.177377   0.981820  20.003625   # H_
 80 1 3  -0.208842   6.544431   0.675661   0.625980   # C_3
 81 1 4  -0.006797   4.815120  20.360499   0.252131   # H_
 82 1 4   0.149990   6.918074  20.493189   0.990928   # H_
 83 1 4   0.032366   7.289232   1.140178   0.037261   # H_
 84 1 3  -0.119881   6.312587   1.635125   1.944389   # C_3
 85 1 4   0.075450   5.229749   1.658516   2.193828   # H_
 86 1 4   0.049984   6.563476   2.694364   1.872972   # H_
 87 1 4   0.044945   6.968583   1.411146   2.798073   # H_
 88 1 4   0.099769   4.828989   1.835090   8.447005   # H_
 89 1 4   0.087758   3.380789   2.758742   8.711349   # H_
 90 1 4   0.083630   3.351809   1.489187   7.636585   # H_
 91 1 3   0.558899   3.179581  10.350200   7.170619   # C_3
 92 1 2  -0.652879   3.528590  10.350200   8.377659   # O_3
 93 1 2  -0.681468   1.972541  10.350200   6.821610   # O_3
 94 1 3  -0.186410   4.243582  10.350200   6.106618   # C_3
 95 1 3  -0.025453   3.816533  10.350200   4.812636   # C_3
 96 1 4   0.054110   2.700574  10.350200   4.580585   # H_
 97 1 2  -0.230696   4.460936  10.735641   2.461692   # O_3
 98 1 3   0.154069   4.812636  10.350200   3.817568   # C_3
 99 1 3  -0.186013   6.106618  10.350200   4.243582   # C_3
 100 1 3  -0.020488   6.532632  10.350200   5.537564   # C_3
 101 1 3   0.157652   5.537564  10.350200   6.533667   # C_3
 102 1 2  -0.220249   5.910999  10.704798   7.862426   # O_3
 103 1 4   0.044100   7.648591  10.350200   5.769615   # H_
 104 1 2  -0.746434   8.377452  10.350200   3.528590   # O_3
 105 1 3   0.551932   7.170619  10.350200   3.179581   # C_3
 106 1 2  -0.741987   6.821610  10.350200   1.972541   # O_3
 107 1 3   0.169890   4.153121   9.659014   1.632434   # C_3
 108 1 3  -0.457452   3.993107  10.179008   0.194791   # C_3
 109 1 4  -0.010619   4.942013   8.880058   1.697019   # H_
 110 1 4  -0.020820   3.191588   9.220372   1.802384   # H_
 111 1 4   0.158409   5.025022  10.454530  20.608283   # H_
 112 1 3   0.276610   2.975890  11.311734  20.498364   # C_3
 113 1 4   0.197545   3.672458   9.350578  20.286392   # H_
 114 1 4  -0.021986   1.966538  10.894828  20.321169   # H_
 115 1 4  -0.062546   2.876114  12.067712   0.603417   # H_
 116 1 3  -0.316012   3.533558  11.912666  19.147663   # C_3
 117 1 3   0.069825   6.201219   9.664396   8.770345   # C_3
 118 1 3  -0.142420   5.837720  10.306108  10.146508   # C_3
 119 1 4   0.005942   7.230857   9.322839   8.707830   # H_
 120 1 4   0.027496   5.555987   8.780075   8.560443   # H_
 121 1 4   0.045884   5.178619  11.093758   9.912801   # H_
 122 1 3  -0.005254   6.939602  10.934779  11.003298   # C_3
 123 1 4   0.048081   5.293506   9.616164  10.737711   # H_
 124 1 4   0.042156   7.290681  10.129534  11.535919   # H_
 125 1 4   0.019624   7.755198  11.190429  10.398846   # H_
 126 1 3  -0.182491   6.620609  11.941854  12.163762   # C_3
 127 1 4   0.081414   5.539634  11.962554  12.388154   # H_
 128 1 4   0.064735   6.919316  12.962590  11.980356   # H_
 129 1 4   0.068088   7.184281  11.656188  13.030695   # H_
 130 1 4   0.136264   4.634406  11.790741  19.098810   # H_
 131 1 4   0.114045   3.378098  12.971285  18.942522   # H_
 132 1 4   0.119364   3.165919  11.438213  18.353803   # H_
 133 1 3   0.554458  13.529781   0.000000   7.170619   # C_3
 134 1 2  -0.683938  13.878790   0.000000   8.377659   # O_3
 135 1 2  -0.694965  12.322741   0.000000   6.821610   # O_3
 136 1 3  -0.204311  14.593782   0.000000   6.106618   # C_3
 137 1 3  -0.027726  14.166733   0.000000   4.812636   # C_3
 138 1 4   0.023381  13.050774   0.000000   4.580585   # H_
 139 1 2  -0.264546  14.763318   0.449613   2.451755   # O_3
 140 1 3   0.122848  15.162629   0.000000   3.817568   # C_3
 141 1 3  -0.186268  16.456611   0.000000   4.243582   # C_3
 142 1 3  -0.038219  16.882832   0.000000   5.537564   # C_3
 143 1 3   0.151059  15.887764   0.000000   6.533667   # C_3
 144 1 2  -0.288606  16.240913   0.378610   7.881677   # O_3
 145 1 4   0.024644  17.998791   0.000000   5.769615   # H_
 146 1 2  -0.664500  18.727652   0.000000   3.528590   # O_3
 147 1 3   0.543568  17.520612   0.000000   3.179581   # C_3
 148 1 2  -0.699896  17.171603   0.000000   1.972541   # O_3
 149 1 3   0.119600  14.809273  20.252650   1.319858   # C_3
 150 1 3  -0.176739  15.154556   0.412559  20.579924   # C_3
 151 1 4   0.035340  15.500253  19.428774   1.528518   # H_
 152 1 4   0.002338  13.867819  19.731414   1.421496   # H_
 153 1 4   0.033919  15.557179   1.025912   0.565535   # H_
 154 1 3   0.003570  14.661679   1.415907  19.144972   # C_3
 155 1 4   0.098753  15.812622  20.391964  20.254720   # H_
 156 1 4   0.047515  13.893487   2.137730  19.361498   # H_
 157 1 4   0.024532  14.040874   1.037918  18.492702   # H_
 158 1 3  -0.148717  15.636668   2.373715  18.291701   # C_3
 159 1 3   0.256929  16.444605  20.100502   8.883577   # C_3
 160 1 3  -0.342968  16.073861   0.007038  10.354133   # C_3
 161 1 4  -0.019928  17.396409  19.609903   8.775107   # H_
 162 1 4   0.015501  15.715951  19.290289   8.667671   # H_
 163 1 4   0.021595  15.216864   0.459342  10.104072   # H_
 164 1 3  -0.000246  16.717850   0.960913  11.534677   # C_3
 165 1 4   0.154430  15.745138  19.825601  10.855083   # H_
 166 1 4   0.053339  15.845121   0.733208  11.986153   # H_
 167 1 4  -0.000746  17.553939   0.420425  11.948685   # H_
 168 1 3  -0.175409  16.545209   2.169195  12.582738   # C_3
 169 1 4   0.057894  15.464855   2.380960  12.888897   # H_
 170 1 4   0.065786  16.949902   3.131764  12.321499   # H_
 171 1 4   0.060428  17.126890   1.974818  13.500594   # H_
 172 1 4   0.063178  16.686178   2.268971  18.547972   # H_
 173 1 4   0.082128  15.346242   3.430263  18.402863   # H_
 174 1 4   0.061105  15.577672   2.259656  17.201618   # H_
 175 1 3   0.544971  13.529781  10.350200  17.520819   # C_3
 176 1 2  -0.692201  13.878790  10.350200  18.727859   # O_3
 177 1 2  -0.733999  12.322741  10.350200  17.171810   # O_3
 178 1 3  -0.169459  14.593782  10.350200  16.456818   # C_3
 179 1 3  -0.026061  14.166733  10.350200  15.162836   # C_3
 180 1 4   0.056659  13.050774  10.350200  14.930785   # H_
 181 1 2  -0.221445  14.825626  10.749511  12.871302   # O_3
 182 1 3   0.165561  15.162629  10.350200  14.167768   # C_3
 183 1 3  -0.184412  16.456611  10.350200  14.593782   # C_3
 184 1 3  -0.015972  16.882832  10.350200  15.887764   # C_3
 185 1 3   0.150601  15.887764  10.350200  16.883867   # C_3
 186 1 2  -0.199745  16.177156  10.780768  18.214282   # O_3
 187 1 4   0.042470  17.998791  10.350200  16.119815   # H_
 188 1 2  -0.638047  18.727652  10.350200  13.878790   # O_3
 189 1 3   0.550613  17.520612  10.350200  13.529781   # C_3
 190 1 2  -0.650889  17.171603  10.350200  12.322741   # O_3
 191 1 3   0.078581  14.678033   9.640383  12.076820   # C_3
 192 1 3  -0.134738  14.422383  10.341299  10.791533   # C_3
 193 1 4   0.022630  15.557800   9.034069  11.920946   # H_
 194 1 4   0.002776  13.976496   8.941745  12.445908   # H_
 195 1 4   0.043338  15.273790  11.013027  10.572315   # H_
 196 1 3   0.023890  13.118878  11.080924  10.722807   # C_3
 197 1 4   0.063544  14.466889   9.611196  10.063499   # H_
 198 1 4   0.008444  12.248013  10.476679  10.883649   # H_
 199 1 4   0.033297  13.134818  11.936472  11.423516   # H_
 200 1 3  -0.203711  12.959692  11.485203   9.332568   # C_3
 201 1 3   0.006561  16.802101   9.929154  19.107297   # C_3
 202 1 3   0.111753  16.245053  10.361792  20.497536   # C_3
 203 1 4   0.034271  17.888872  10.102209  19.053269   # H_
 204 1 4   0.056464  16.603584   8.867016  18.874004   # H_
 205 1 4   0.012501  15.467546  11.026896  20.295500   # H_
 206 1 3  -0.161191  17.194580  11.135780   0.731966   # C_3
 207 1 4  -0.052811  15.783020   9.557375   0.306987   # H_
 208 1 4   0.072278  17.674209  10.401744   1.262310   # H_
 209 1 4   0.028285  17.897152  11.577527   0.096464   # H_
 210 1 3  -0.118072  16.744554  12.112425   1.879389   # C_3
 211 1 4   0.076264  15.661509  12.036041   2.083288   # H_
 212 1 4   0.053168  16.966669  13.174770   1.833434   # H_
 213 1 4   0.056146  17.356043  11.819307   2.739077   # H_
 214 1 4   0.084814  12.971699  10.569624   8.772830   # H_
 215 1 4   0.080169  13.739062  12.181978   8.978177   # H_
 216 1 4   0.067712  11.972076  11.912045   9.230929   # H_
 217 1 3   0.530750  17.520819   0.000000  17.520819   # C_3
 218 1 2  -0.735733  17.171810   0.000000  18.727859   # O_3
 219 1 2  -0.761195  18.727859   0.000000  17.171810   # O_3
 220 1 3  -0.178769  16.456818   0.000000  16.456818   # C_3
 221 1 3  -0.021541  16.883867   0.000000  15.162836   # C_3
 222 1 4   0.001785  17.999826   0.000000  14.930785   # H_
 223 1 2  -0.133471  16.029148  19.658342  13.150136   # O_3
 224 1 3   0.064377  15.887971   0.000000  14.167768   # C_3
 225 1 3  -0.180714  14.593989   0.000000  14.593782   # C_3
 226 1 3  -0.029829  14.167768   0.000000  15.887764   # C_3
 227 1 3   0.068910  15.162836   0.000000  16.883867   # C_3
 228 1 2  -0.117803  14.953141  19.960154  18.097325   # O_3
 229 1 4   0.022988  13.051809   0.000000  16.119815   # H_
 230 1 2  -0.792441  12.322948   0.000000  13.878790   # O_3
 231 1 3   0.535218  13.529988   0.000000  13.529781   # C_3
 232 1 2  -0.781622  13.878997   0.000000  12.322741   # O_3
 233 1 3   0.027345  15.171116  18.400793  13.278686   # C_3
 234 1 3  -0.097112  14.923125  17.690769  14.614896   # C_3
 235 1 4   0.055207  14.228627  18.506779  12.818930   # H_
 236 1 4   0.025195  15.642050  17.632808  12.683342   # H_
 237 1 4   0.041213  15.703944  16.898979  14.696870   # H_
 238 1 3  -0.013428  13.554001  16.908087  14.669338   # C_3
 239 1 4   0.083135  15.017726  18.411143  15.501495   # H_
 240 1 4   0.055549  12.702593  17.639225  14.736201   # H_
 241 1 4   0.025481  13.556899  16.307154  15.597544   # H_
 242 1 3  -0.194688  13.507632  16.040119  13.439528   # C_3
 243 1 3   0.063472  13.745273  19.431672  18.274934   # C_3
 244 1 3  -0.117616  12.979565  19.933657  19.543041   # C_3
 245 1 4   0.047602  14.185156  18.493116  18.564947   # H_
 246 1 4   0.044051  13.203957  19.222184  17.364531   # H_
 247 1 4   0.096633  12.292519  19.340591  19.806143   # H_
 248 1 3   0.034839  12.077441   0.505711  19.937383   # C_3
 249 1 4   0.119836  13.627901  19.607626  20.214148   # H_
 250 1 4   0.021510  12.150928   1.301020  19.269174   # H_
 251 1 4  -0.002016  11.029587   0.355012  19.958084   # H_
 252 1 3  -0.374230  12.300799   1.158808   0.596586   # C_3
 253 1 4   0.105695  12.834662   2.099021   0.556634   # H_
 254 1 4   0.089848  11.404885   1.304746   1.098570   # H_
 255 1 4   0.101385  12.777736   0.598656   1.240989   # H_
 256 1 4   0.076611  14.477032  15.957938  13.021173   # H_
 257 1 4   0.094140  12.870267  16.467996  12.683342   # H_
 258 1 4   0.077199  13.136474  15.039048  13.693936   # H_
 259 1 3   0.547470  17.520819  10.350200   7.170619   # C_3
 260 1 2  -0.728901  17.171810  10.350200   8.377659   # O_3
 261 1 2  -0.721467  18.727859  10.350200   6.821610   # O_3
 262 1 3  -0.188454  16.456818  10.350200   6.106618   # C_3
 263 1 3  -0.016003  16.883867  10.350200   4.812636   # C_3
 264 1 4   0.039128  17.999826  10.350200   4.580585   # H_
 265 1 2  -0.221190  16.123128   9.630654   2.582789   # O_3
 266 1 3   0.143500  15.887971  10.350200   3.817568   # C_3
 267 1 3  -0.173522  14.593989  10.350200   4.243582   # C_3
 268 1 3  -0.027343  14.167768  10.350200   5.537564   # C_3
 269 1 3   0.165654  15.162836  10.350200   6.533667   # C_3
 270 1 2  -0.238433  14.855435   9.923772   7.833031   # O_3
 271 1 4   0.049853  13.051809  10.350200   5.769615   # H_
 272 1 2  -0.661704  12.322948  10.350200   3.528590   # O_3
 273 1 3   0.555508  13.529988  10.350200   3.179581   # C_3
 274 1 2  -0.658317  13.878997  10.350200   1.972541   # O_3
 275 1 3   0.053471  15.602719   8.308727   2.531038   # C_3
 276 1 3  -0.124191  15.507291   7.406603   3.731040   # C_3
 277 1 4   0.040323  14.685278   8.311625   2.013528   # H_
 278 1 4   0.028474  16.332616   7.965928   1.869660   # H_
 279 1 4   0.058821  16.159974   7.724354   4.558228   # H_
 280 1 3   0.004974  15.847605   6.048036   3.244374   # C_3
 281 1 4   0.058136  14.473927   7.475328   4.151465   # H_
 282 1 4   0.035608  15.278137   5.685158   2.387791   # H_
 283 1 4   0.020247  15.616796   5.443377   4.022916   # H_
 284 1 3  -0.233285  17.338448   5.888436   3.022879   # C_3
 285 1 3   0.115860  15.134476   8.588803   7.736153   # C_3
 286 1 3  -0.207306  13.941098   7.913349   8.079987   # C_3
 287 1 4   0.019899  15.869755   8.325494   8.517801   # H_
 288 1 4   0.002532  15.529026   8.145400   6.760751   # H_
 289 1 4   0.098074  14.306253   6.994665   8.126149   # H_
 290 1 3   0.052021  12.684377   7.901343   7.244933   # C_3
 291 1 4   0.086019  13.671786   8.213091   9.048559   # H_
 292 1 4   0.030559  12.768214   8.586112   6.455213   # H_
 293 1 4   0.022698  12.554379   7.005636   6.684780   # H_
 294 1 3  -0.238300  11.520808   8.006708   8.252214   # C_3
 295 1 4   0.105702  11.477751   7.074362   8.639105   # H_
 296 1 4   0.068880  11.744165   8.715489   9.058081   # H_
 297 1 4   0.092915  10.524290   8.207916   8.037965   # H_
 298 1 4   0.104761  17.528271   5.153572   2.245165   # H_
 299 1 4   0.089229  17.704845   5.560748   3.997040   # H_
 300 1 4   0.105451  17.814971   6.720799   2.699332   # H_
 301 1 3   0.544213   7.170619   0.000000   7.170619   # C_3
 302 1 2  -0.704501   6.821610   0.000000   8.377659   # O_3
 303 1 2  -0.692850   8.377659   0.000000   6.821610   # O_3
 304 1 3  -0.185170   6.106618   0.000000   6.106618   # C_3
 305 1 3  -0.018766   6.533667   0.000000   4.812636   # C_3
 306 1 4   0.004702   7.649626   0.000000   4.580585   # H_
 307 1 2  -0.135912   5.711447  19.837400   2.599556   # O_3
 308 1 3   0.058904   5.537564   0.000000   3.817568   # C_3
 309 1 3  -0.172514   4.243582   0.000000   4.243582   # C_3
 310 1 3  -0.023077   3.817568   0.000000   5.537564   # C_3
 311 1 3   0.065998   4.812636   0.000000   6.533667   # C_3
 312 1 2  -0.124861   4.523037  20.227603   7.811503   # O_3
 313 1 4   0.010697   2.701609   0.000000   5.769615   # H_
 314 1 2  -0.692233   1.972748   0.000000   3.528590   # O_3
 315 1 3   0.541672   3.179581   0.000000   3.179581   # C_3
 316 1 2  -0.692362   3.528590   0.000000   1.972541   # O_3
 317 1 3   0.031663   5.294748  18.495186   2.592725   # C_3
 318 1 3  -0.105085   4.027677  17.714781   3.141907   # C_3
 319 1 4   0.059226   5.004322  18.480075   1.660793   # H_
 320 1 4   0.021688   6.160853  17.761978   2.708026   # H_
 321 1 4   0.080104   3.115617  18.165429   2.794554   # H_
 322 1 3  -0.010902   4.057278  17.399100   4.683465   # C_3
 323 1 4   0.064131   3.936802  16.706879   2.799936   # H_
 324 1 4   0.028598   3.371888  16.576673   4.932491   # H_
 325 1 4   0.059551   3.697298  18.303501   5.128731   # H_
 326 1 3  -0.185966   5.432199  17.080728   5.039305   # C_3
 327 1 3   0.062812   4.878670  18.889322   7.781280   # C_3
 328 1 3  -0.150931   3.612013  18.161082   7.687922   # C_3
 329 1 4   0.031048   5.213603  18.647127   8.702448   # H_
 330 1 4   0.039252   5.754711  18.690184   7.236032   # H_
 331 1 4   0.064487   3.687983  17.416075   6.961959   # H_
 332 1 3   0.024643   2.360881  18.968812   7.491475   # C_3
 333 1 4   0.084664   3.508097  17.669654   8.569138   # H_
 334 1 4   0.069165   2.434988  20.029500   7.604913   # H_
 335 1 4   0.052557   2.120135  18.749801   6.497442   # H_
 336 1 3  -0.231510   1.312819  18.675694   8.464187   # C_3
 337 1 4   0.070162   1.158187  19.524203   9.103208   # H_
 338 1 4   0.056300   0.363913  18.367465   8.059908   # H_
 339 1 4   0.105130   1.588963  17.901292   9.078574   # H_
 340 1 4   0.072082   5.687849  17.123578   6.007670   # H_
 341 1 4   0.081960   5.962336  17.997135   4.646619   # H_
 342 1 4   0.058924   5.956540  16.155006   4.675185   # H_
 343 1 3   0.551171   7.170619  10.350200  17.520819   # C_3
 344 1 2  -0.627415   6.821610  10.350200  18.727859   # O_3
 345 1 2  -0.663975   8.377659  10.350200  17.171810   # O_3
 346 1 3  -0.173430   6.106618  10.350200  16.456818   # C_3
 347 1 3  -0.029666   6.533667  10.350200  15.162836   # C_3
 348 1 4   0.039343   7.649626  10.350200  14.930785   # H_
 349 1 2  -0.222267   5.735046   9.631689  12.990329   # O_3
 350 1 3   0.155842   5.537564  10.350200  14.167768   # C_3
 351 1 3  -0.181586   4.243582  10.350200  14.593782   # C_3
 352 1 3  -0.027358   3.817568  10.350200  15.887764   # C_3
 353 1 3   0.146701   4.812636  10.350200  16.883867   # C_3
 354 1 2  -0.224434   4.655934   9.715940  18.146592   # O_3
 355 1 4   0.051422   2.701609  10.350200  16.119815   # H_
 356 1 2  -0.735871   1.972748  10.350200  13.878790   # O_3
 357 1 3   0.542380   3.179581  10.350200  13.529781   # C_3
 358 1 2  -0.736424   3.528590  10.350200  12.322741   # O_3
 359 1 3   0.049630   5.106375   8.322182  13.154276   # C_3
 360 1 3  -0.127818   5.376515   7.649833  14.499388   # C_3
 361 1 4   0.032884   4.022709   8.269396  13.063401   # H_
 362 1 4   0.028214   5.398457   7.843175  12.301627   # H_
 363 1 4   0.060476   6.292922   7.953094  14.986676   # H_
 364 1 3   0.014877   5.268459   6.202461  14.432319   # C_3
 365 1 4   0.061134   4.512273   7.976071  15.143792   # H_
 366 1 4   0.020594   4.223296   5.958403  14.236079   # H_
 367 1 4   0.012859   5.537978   5.904582  15.448295   # H_
 368 1 3  -0.230451   6.138083   5.736702  13.279100   # C_3
 369 1 3   0.077019   4.811394   8.379729  17.982644   # C_3
 370 1 3  -0.143154   3.402939   7.868222  18.005829   # C_3
 371 1 4   0.052182   5.423091   8.071707  18.804657   # H_
 372 1 4   0.009762   5.326006   8.008157  17.075760   # H_
 373 1 4   0.059927   3.287431   7.163994  17.148418   # H_
 374 1 3  -0.019103   2.233573   8.790425  17.967947   # C_3
 375 1 4   0.092540   3.277908   7.453800  18.930723   # H_
 376 1 4   0.042327   2.599556   9.655909  18.301845   # H_
 377 1 4   0.053625   1.993449   8.821061  16.950316   # H_
 378 1 3  -0.186120   1.092567   8.823545  18.902984   # C_3
 379 1 4   0.032816   0.410696   8.048316  18.587510   # H_
 380 1 4   0.080467   1.573230   8.660012  19.862862   # H_
 381 1 4   0.032271   0.461619   9.724013  19.017250   # H_
 382 1 4   0.092051   6.624956   4.832301  13.125503   # H_
 383 1 4   0.089168   6.857836   6.450038  12.924088   # H_
 384 1 4   0.088172   5.391626   5.682674  12.520844   # H_
 385 1 3   0.538320  17.520819   3.179581   0.000000   # C_3
 386 1 2  -0.739955  18.727859   3.528590   0.000000   # O_3
 387 1 2  -0.777302  17.171810   1.972541   0.000000   # O_3
 388 1 3  -0.205465  16.456818   4.243582   0.000000   # C_3
 389 1 3  -0.028452  15.162836   3.816533   0.000000   # C_3
 390 1 4   0.029390  14.930785   2.700574   0.000000   # H_
 391 1 2  -0.241631  12.877098   4.422847   0.514198   # O_3
 392 1 3   0.127953  14.167768   4.812636   0.000000   # C_3
 393 1 3  -0.188258  14.593782   6.106618   0.000000   # C_3
 394 1 3  -0.032582  15.887764   6.532632   0.000000   # C_3
 395 1 3   0.144200  16.883867   5.537564   0.000000   # C_3
 396 1 2  -0.233910  18.192961   5.937496   0.293739   # O_3
 397 1 4   0.030575  16.119815   7.648591   0.000000   # H_
 398 1 2  -0.691162  13.878790   8.377452   0.000000   # O_3
 399 1 3   0.549818  13.529781   7.170619   0.000000   # C_3
 400 1 2  -0.677600  12.322741   6.821610   0.000000   # O_3
 401 1 3   0.045192  12.012235   4.277531  20.114993   # C_3
 402 1 3   0.191272  10.619098   4.432991  20.637264   # C_3
 403 1 4   0.056617  12.133953   5.045515  19.327756   # H_
 404 1 4   0.032085  12.144925   3.332350  19.623151   # H_
 405 1 4  -0.156957  10.411059   5.442756   0.284216   # H_
 406 1 3  -0.185153  10.225998   3.322828   0.788685   # C_3
 407 1 4   0.011904   9.944265   4.269872  19.835951   # H_
 408 1 4   0.020947  10.107798   2.446787   0.143247   # H_
 409 1 4   0.073584  11.028345   3.175441   1.530795   # H_
 410 1 3  -0.108032   8.888752   3.604561   1.413837   # C_3
 411 1 3  -0.128251  19.000483   6.001874  19.883148   # C_3
 412 1 3   0.743448  20.315580   5.673980  20.607248   # C_3
 413 1 4   0.079612  18.932172   7.011432  19.409937   # H_
 414 1 4   0.106873  18.782301   5.249000  19.097154   # H_
 415 1 4  -0.130151  20.100502   5.374445   0.908541   # H_
 416 1 3  -1.022450   0.442368   6.799874   0.004554   # C_3
 417 1 4  -0.265163   0.202243   4.882810  20.253685   # H_
 418 1 4   0.324637   0.897569   6.666978  19.783786   # H_
 419 1 4   0.397693  20.554876   7.674259  20.594000   # H_
 420 1 3   0.272722   1.458136   6.940016   1.113268   # C_3
 421 1 4  -0.026260   1.814597   5.975584   1.526033   # H_
 422 1 4  -0.060899   0.927585   7.461666   1.846476   # H_
 423 1 4  -0.064778   2.332935   7.544468   0.842092   # H_
 424 1 4   0.060474   8.604121   4.680360   1.427086   # H_
 425 1 4   0.045002   8.777591   3.234230   2.447408   # H_
 426 1 4   0.040310   8.234412   3.041096   0.831121   # H_
 427 1 3   0.542504  17.520819  13.529781  10.350200   # C_3
 428 1 2  -0.710455  18.727859  13.878790  10.350200   # O_3
 429 1 2  -0.737798  17.171810  12.322741  10.350200   # O_3
 430 1 3  -0.176956  16.456818  14.593782  10.350200   # C_3
 431 1 3  -0.025247  15.162836  14.166733  10.350200   # C_3
 432 1 4   0.052695  14.930785  13.050774  10.350200   # H_
 433 1 2  -0.219823  12.822863  14.794369  10.570866   # O_3
 434 1 3   0.161284  14.167768  15.162629  10.350200   # C_3
 435 1 3  -0.187077  14.593782  16.456611  10.350200   # C_3
 436 1 3  -0.013199  15.887764  16.882832  10.350200   # C_3
 437 1 3   0.146770  16.883867  15.887764  10.350200   # C_3
 438 1 2  -0.190791  18.235810  16.224146  10.637315   # O_3
 439 1 4   0.039989  16.119815  17.998791  10.350200   # H_
 440 1 2  -0.638639  13.878790  18.727652  10.350200   # O_3
 441 1 3   0.549388  13.529781  17.520612  10.350200   # C_3
 442 1 2  -0.651688  12.322741  17.171603  10.350200   # O_3
 443 1 3   0.059927  12.112218  14.634976   9.386389   # C_3
 444 1 3  -0.111527  10.717425  14.304804   9.896240   # C_3
 445 1 4   0.034187  12.120498  15.561733   8.785250   # H_
 446 1 4   0.008862  12.529952  13.874857   8.740951   # H_
 447 1 4   0.026493  10.236555  15.275032  10.119598   # H_
 448 1 3   0.039669  10.669607  13.402474  11.109905   # C_3
 449 1 4   0.054081  10.128499  13.773218   9.181455   # H_
 450 1 4   0.007834  10.852599  12.378839  10.820927   # H_
 451 1 4   0.032707  11.416685  13.664127  11.881823   # H_
 452 1 3  -0.270576   9.343126  13.374735  11.704420   # C_3
 453 1 3  -0.046268  19.120338  16.439844   9.571037   # C_3
 454 1 3   0.209455  20.500848  16.298667  10.236348   # C_3
 455 1 4   0.051671  19.009591  17.381505   8.994324   # H_
 456 1 4   0.074463  18.999241  15.614726   8.834931   # H_
 457 1 4  -0.024674  20.440610  15.467546  10.898554   # H_
 458 1 3  -0.353779   0.419390  17.433670  11.074093   # C_3
 459 1 4  -0.067401   0.475281  16.018591   9.529429   # H_
 460 1 4   0.082704   0.431189  18.408038  10.677059   # H_
 461 1 4   0.193592  20.472489  17.562219  11.840836   # H_
 462 1 3  -0.053120   1.718961  17.086110  11.888447   # C_3
 463 1 4   0.050208   1.910647  15.985677  11.916806   # H_
 464 1 4   0.030969   1.685841  17.396409  12.941476   # H_
 465 1 4   0.049208   2.548426  17.621837  11.440697   # H_
 466 1 4   0.105671   8.828928  14.336683  11.759483   # H_
 467 1 4   0.101928   9.523219  13.096108  12.664298   # H_
 468 1 4   0.096271   8.800568  12.642355  11.220859   # H_
 469 1 3   0.558290   7.170619   3.179581  10.350200   # C_3
 470 1 2  -0.651895   8.377659   3.528590  10.350200   # O_3
 471 1 2  -0.680149   6.821610   1.972541  10.350200   # O_3
 472 1 3  -0.184619   6.106618   4.243582  10.350200   # C_3
 473 1 3  -0.024346   4.812636   3.816533  10.350200   # C_3
 474 1 4   0.049839   4.580585   2.700574  10.350200   # H_
 475 1 2  -0.214051   2.490672   4.455554  10.810991   # O_3
 476 1 3   0.150401   3.817568   4.812636  10.350200   # C_3
 477 1 3  -0.181224   4.243582   6.106618  10.350200   # C_3
 478 1 3  -0.022948   5.537564   6.532632  10.350200   # C_3
 479 1 3   0.148060   6.533667   5.537564  10.350200   # C_3
 480 1 2  -0.212960   7.892856   5.918451  10.701900   # O_3
 481 1 4   0.045512   5.769615   7.648591  10.350200   # H_
 482 1 2  -0.664837   3.528590   8.377452  10.350200   # O_3
 483 1 3   0.555932   3.179581   7.170619  10.350200   # C_3
 484 1 2  -0.642945   1.972541   6.821610  10.350200   # O_3
 485 1 3   0.112859   1.544664   4.331766   9.784251   # C_3
 486 1 3  -0.262066   0.245714   4.220605  10.471918   # C_3
 487 1 4   0.010222   1.575093   5.129973   9.026823   # H_
 488 1 4  -0.012732   1.634090   3.386792   9.278540   # H_
 489 1 4   0.036535   0.023184   5.155849  10.952375   # H_