 (written by mofun)

680 atoms
0 bonds
0 angles
0 dihedrals
0 impropers

4 atom types
   0.000000  26.896000 xlo xhi
   0.000000  26.896000 ylo yhi
   0.000000  26.896000 zlo zhi

Masses

 1 91.2240   # Zr3+4
 2 15.9994   # O_3
 3 12.0107   # C_3
 4 18.9984   # F_

Pair Coeffs

 1   0.069000   2.783168 # Zr3+4
 2   0.060000   3.118146 # O_3
 3   0.105000   3.430851 # C_3
 4   0.050000   2.996983 # F_

Atoms

 1 1 1   3.178730   2.475508   0.000000   0.000000   # Zr3+4
 2 1 1   3.177360  24.420492   0.000000   0.000000   # Zr3+4
 3 1 1   3.178290   0.000000   2.475508   0.000000   # Zr3+4
 4 1 1   3.177110   0.000000  24.420492   0.000000   # Zr3+4
 5 1 1   3.177830   0.000000   0.000000   2.475508   # Zr3+4
 6 1 1   3.176630   0.000000   0.000000  24.420492   # Zr3+4
 7 1 1   3.217060   2.475508  13.448000  13.448000   # Zr3+4
 8 1 1   3.215470  24.420492  13.448000  13.448000   # Zr3+4
 9 1 1   3.197490   0.000000  15.923508  13.448000   # Zr3+4
 10 1 1   3.197400   0.000000  10.972492  13.448000   # Zr3+4
 11 1 1   3.197490   0.000000  13.448000  15.923508   # Zr3+4
 12 1 1   3.197400   0.000000  13.448000  10.972492   # Zr3+4
 13 1 1   3.197480  15.923508   0.000000  13.448000   # Zr3+4
 14 1 1   3.197370  10.972492   0.000000  13.448000   # Zr3+4
 15 1 1   3.217060  13.448000   2.475508  13.448000   # Zr3+4
 16 1 1   3.215470  13.448000  24.420492  13.448000   # Zr3+4
 17 1 1   3.197270  13.448000   0.000000  15.923508   # Zr3+4
 18 1 1   3.196970  13.448000   0.000000  10.972492   # Zr3+4
 19 1 1   3.197060  15.923508  13.448000   0.000000   # Zr3+4
 20 1 1   3.196970  10.972492  13.448000   0.000000   # Zr3+4
 21 1 1   3.197060  13.448000  15.923508   0.000000   # Zr3+4
 22 1 1   3.196970  13.448000  10.972492   0.000000   # Zr3+4
 23 1 1   3.217070  13.448000  13.448000   2.475508   # Zr3+4
 24 1 1   3.215490  13.448000  13.448000  24.420492   # Zr3+4
 25 1 2  -1.360430   1.221078   1.221078   1.221078   # O_3
 26 1 2  -1.089310  25.674922  25.674922   1.221078   # O_3
 27 1 2  -1.090030  25.674922   1.221078  25.674922   # O_3
 28 1 2  -1.089900   1.221078  25.674922  25.674922   # O_3
 29 1 2  -1.223630   1.221078   1.221078  25.674922   # O_3
 30 1 2  -0.959678  25.674922  25.674922  25.674922   # O_3
 31 1 2  -1.223050   1.221078  25.674922   1.221078   # O_3
 32 1 2  -1.222530  25.674922   1.221078   1.221078   # O_3
 33 1 2  -1.281110   1.221078  14.669078  14.669078   # O_3
 34 1 2  -1.143350  25.674922  12.226922  14.669078   # O_3
 35 1 2  -1.143520  25.674922  14.669078  12.226922   # O_3
 36 1 2  -1.282050   1.221078  12.226922  12.226922   # O_3
 37 1 2  -1.280770   1.221078  14.669078  12.226922   # O_3
 38 1 2  -1.144530  25.674922  12.226922  12.226922   # O_3
 39 1 2  -1.281310   1.221078  12.226922  14.669078   # O_3
 40 1 2  -1.144640  25.674922  14.669078  14.669078   # O_3
 41 1 2  -1.280900  14.669078   1.221078  14.669078   # O_3
 42 1 2  -1.143380  12.226922  25.674922  14.669078   # O_3
 43 1 2  -1.281940  12.226922   1.221078  12.226922   # O_3
 44 1 2  -1.144630  14.669078  25.674922  12.226922   # O_3
 45 1 2  -1.280970  14.669078   1.221078  12.226922   # O_3
 46 1 2  -1.143990  12.226922  25.674922  12.226922   # O_3
 47 1 2  -1.144200  14.669078  25.674922  14.669078   # O_3
 48 1 2  -1.282320  12.226922   1.221078  14.669078   # O_3
 49 1 2  -1.281670  14.669078  14.669078   1.221078   # O_3
 50 1 2  -1.281580  12.226922  12.226922   1.221078   # O_3
 51 1 2  -1.144730  12.226922  14.669078  25.674922   # O_3
 52 1 2  -1.144820  14.669078  12.226922  25.674922   # O_3
 53 1 2  -1.143580  14.669078  14.669078  25.674922   # O_3
 54 1 2  -1.143560  12.226922  12.226922  25.674922   # O_3
 55 1 2  -1.281960  14.669078  12.226922   1.221078   # O_3
 56 1 2  -1.282510  12.226922  14.669078   1.221078   # O_3
 57 1 2  -0.617974   3.566410   0.000000   1.933822   # O_3
 58 1 3   0.545701   3.152211   0.000000   3.152211   # C_3
 59 1 2  -0.656897   1.933822   0.000000   3.566410   # O_3
 60 1 3  -0.238995   4.209224   0.000000   4.209224   # C_3
 61 1 3   0.308330   5.535197   0.000000   3.891851   # C_3
 62 1 3   0.200952   3.891851   0.000000   5.535197   # C_3
 63 1 3   0.167091   6.508832   0.000000   4.827832   # C_3
 64 1 4  -0.340988   5.924113   0.056482   2.500252   # F_
 65 1 3   0.078913   4.827832   0.000000   6.508832   # C_3
 66 1 4  -0.162465   2.500252  26.828222   5.922768   # F_
 67 1 3   0.011863   6.204907   0.000000   6.204907   # C_3
 68 1 3   0.008556   7.243093   0.000000   7.243093   # C_3
 69 1 4  -0.312092   7.754386   0.497845   4.350428   # F_
 70 1 3   0.090613   8.620168   0.000000   6.939168   # C_3
 71 1 4  -0.097549   4.282112  26.486105   7.775096   # F_
 72 1 3   0.163969   6.939168   0.000000   8.620168   # C_3
 73 1 3   0.198275   9.556149   0.000000   7.912803   # C_3
 74 1 4  -0.095053   9.097572  26.397886   5.693614   # F_
 75 1 3   0.306855   7.912803   0.000000   9.556149   # C_3
 76 1 4  -0.308657   5.672904   0.409895   9.165888   # F_
 77 1 3  -0.230616   9.238776   0.000000   9.238776   # C_3
 78 1 3   0.534573  10.295789   0.000000  10.295789   # C_3
 79 1 4  -0.127254  10.947479  26.839249   7.523887   # F_
 80 1 4  -0.331326   7.525232   0.067509  10.948017   # F_
 81 1 2  -0.633881  11.514178   0.000000   9.881590   # O_3
 82 1 2  -0.607427   9.881590   0.000000  11.514178   # O_3
 83 1 2  -0.610578  23.329590   0.000000   1.933822   # O_3
 84 1 3   0.536910  23.743789   0.000000   3.152211   # C_3
 85 1 2  -0.555242  24.962178   0.000000   3.566410   # O_3
 86 1 3  -0.218154  22.686776   0.000000   4.209224   # C_3
 87 1 3   0.312495  21.360803   0.000000   3.891851   # C_3
 88 1 3   0.216429  23.004149   0.000000   5.535197   # C_3
 89 1 3   0.163270  20.387168   0.000000   4.827832   # C_3
 90 1 4  -0.340775  20.971080   0.099784   2.504018   # F_
 91 1 3   0.094759  22.068168   0.000000   6.508832   # C_3
 92 1 4  -0.088078  24.396555  26.836291   5.922499   # F_
 93 1 3   0.021452  20.691093   0.000000   6.204907   # C_3
 94 1 3   0.014339  19.652907   0.000000   7.243093   # C_3
 95 1 4  -0.304290  19.171738   0.649269   4.386738   # F_
 96 1 3   0.096155  18.275832   0.000000   6.939168   # C_3
 97 1 4  -0.061502  22.589144  26.452485   7.782358   # F_
 98 1 3   0.167481  19.956832   0.000000   8.620168   # C_3
 99 1 3   0.201595  17.339851   0.000000   7.912803   # C_3
 100 1 4  -0.104702  17.834738  26.246731   5.723738   # F_
 101 1 3   0.311971  18.983197   0.000000   9.556149   # C_3
 102 1 4  -0.281277  21.230358   0.443515   9.141144   # F_
 103 1 3  -0.229786  17.657224   0.000000   9.238776   # C_3
 104 1 3   0.535684  16.600211   0.000000  10.295789   # C_3
 105 1 4  -0.128284  15.952018  26.795409   7.523080   # F_
 106 1 4  -0.321480  19.370499   0.059709  10.948555   # F_
 107 1 2  -0.633136  15.381822   0.000000   9.881590   # O_3
 108 1 2  -0.605921  17.014410   0.000000  11.514178   # O_3
 109 1 2  -0.530922  23.329590   0.000000  24.962178   # O_3
 110 1 3   0.508528  23.743789   0.000000  23.743789   # C_3
 111 1 2  -0.543290  24.962178   0.000000  23.329590   # O_3
 112 1 3  -0.167535  22.686776   0.000000  22.686776   # C_3
 113 1 3   0.210788  21.360803   0.000000  23.004149   # C_3
 114 1 3   0.209979  23.004149   0.000000  21.360803   # C_3
 115 1 3   0.101858  20.387168   0.000000  22.068168   # C_3
 116 1 4  -0.063390  20.972694  26.797830  24.393865   # F_
 117 1 3   0.093951  22.068168   0.000000  20.387168   # C_3
 118 1 4  -0.086289  24.396286  26.829298  20.973232   # F_
 119 1 3   0.056584  20.691093   0.000000  20.691093   # C_3
 120 1 3  -0.016367  19.652907   0.000000  19.652907   # C_3
 121 1 4  -0.062797  19.141614  26.341404  22.542344   # F_
 122 1 3   0.176615  18.275832   0.000000  19.956832   # C_3
 123 1 4  -0.057670  22.612274  26.488257  19.115794   # F_
 124 1 3   0.176969  19.956832   0.000000  18.275832   # C_3
 125 1 3   0.319269  17.339851   0.000000  18.983197   # C_3
 126 1 4  -0.280217  17.801387   0.554596  21.202386   # F_
 127 1 3   0.320415  18.983197   0.000000  17.339851   # C_3
 128 1 4  -0.281940  21.228206   0.407743  17.731726   # F_
 129 1 3  -0.258557  17.657224   0.000000  17.657224   # C_3
 130 1 3   0.553361  16.600211   0.000000  16.600211   # C_3
 131 1 4  -0.323848  15.950135   0.097632  19.371306   # F_
 132 1 4  -0.320245  19.370768   0.066971  15.947714   # F_
 133 1 2  -0.610899  15.381822   0.000000  17.014410   # O_3
 134 1 2  -0.608552  17.014410   0.000000  15.381822   # O_3
 135 1 2  -0.519838   3.566410   0.000000  24.962178   # O_3
 136 1 3   0.534540   3.152211   0.000000  23.743789   # C_3
 137 1 2  -0.647013   1.933822   0.000000  23.329590   # O_3
 138 1 3  -0.217582   4.209224   0.000000  22.686776   # C_3
 139 1 3   0.320446   5.535197   0.000000  23.004149   # C_3
 140 1 3   0.200335   3.891851   0.000000  21.360803   # C_3
 141 1 3   0.173528   6.508832   0.000000  22.068168   # C_3
 142 1 4  -0.269782   5.924113   0.100860  24.392520   # F_
 143 1 3   0.089949   4.827832   0.000000  20.387168   # C_3
 144 1 4  -0.159732   2.499714  26.839249  20.971618   # F_
 145 1 3   0.019226   6.204907   0.000000  20.691093   # C_3
 146 1 3   0.010780   7.243093   0.000000  19.652907   # C_3
 147 1 4  -0.271948   7.740669   0.597629  22.530241   # F_
 148 1 3   0.099337   8.620168   0.000000  19.956832   # C_3
 149 1 4  -0.100301   4.332946  26.433389  19.140807   # F_
 150 1 3   0.175445   6.939168   0.000000  18.275832   # C_3
 151 1 3   0.203276   9.556149   0.000000  18.983197   # C_3
 152 1 4  -0.076830   9.082241  26.298371  21.188669   # F_
 153 1 3   0.304117   7.912803   0.000000  17.339851   # C_3
 154 1 4  -0.311497   5.692538   0.462611  17.780946   # F_
 155 1 3  -0.227420   9.238776   0.000000  17.657224   # C_3
 156 1 3   0.534206  10.295789   0.000000  16.600211   # C_3
 157 1 4  -0.114348  10.944520  26.795678  19.372113   # F_
 158 1 4  -0.332352   7.523618   0.056751  15.947714   # F_
 159 1 2  -0.629362  11.514178   0.000000  17.014410   # O_3
 160 1 2  -0.607249   9.881590   0.000000  15.381822   # O_3
 161 1 2  -0.634087   1.933822   3.566410   0.000000   # O_3
 162 1 3   0.560714   3.152211   3.152211   0.000000   # C_3
 163 1 2  -0.621657   3.566410   1.933822   0.000000   # O_3
 164 1 3  -0.266709   4.209224   4.209224   0.000000   # C_3
 165 1 3   0.311276   3.891851   5.535197   0.000000   # C_3
 166 1 3   0.312535   5.535197   3.891851   0.000000   # C_3
 167 1 3   0.165911   4.827832   6.508832   0.000000   # C_3
 168 1 4  -0.368469   2.499176   5.922768   0.048144   # F_
 169 1 3   0.177692   6.508832   4.827832   0.000000   # C_3
 170 1 4  -0.341405   5.924382   2.500252   0.055675   # F_
 171 1 3  -0.027661   6.204907   6.204907   0.000000   # C_3
 172 1 3   0.050094   7.243093   7.243093   0.000000   # C_3
 173 1 4  -0.316148   4.342897   7.776978   0.492735   # F_
 174 1 3   0.079480   6.939168   8.620168   0.000000   # C_3
 175 1 4  -0.314011   7.752234   4.343435   0.480900   # F_
 176 1 3   0.082683   8.620168   6.939168   0.000000   # C_3
 177 1 3   0.195011   7.912803   9.556149   0.000000   # C_3
 178 1 4  -0.091331   5.671022   9.105103  26.403265   # F_
 179 1 3   0.194291   9.556149   7.912803   0.000000   # C_3
 180 1 4  -0.092198   9.104834   5.695766  26.414831   # F_
 181 1 3  -0.201055   9.238776   9.238776   0.000000   # C_3
 182 1 3   0.519334  10.295789  10.295789   0.000000   # C_3
 183 1 4  -0.123636   7.525232  10.948824  26.848125   # F_
 184 1 4  -0.124389  10.947748   7.523618  26.840056   # F_
 185 1 2  -0.628994   9.881590  11.514178   0.000000   # O_3
 186 1 2  -0.629381  11.514178   9.881590   0.000000   # O_3
 187 1 2  -0.624160   1.933822  23.329590   0.000000   # O_3
 188 1 3   0.550462   3.152211  23.743789   0.000000   # C_3
 189 1 2  -0.523035   3.566410  24.962178   0.000000   # O_3
 190 1 3  -0.246215   4.209224  22.686776   0.000000   # C_3
 191 1 3   0.312905   3.891851  21.360803   0.000000   # C_3
 192 1 3   0.326817   5.535197  23.004149   0.000000   # C_3
 193 1 3   0.170136   4.827832  20.387168   0.000000   # C_3
 194 1 4  -0.364389   2.499176  20.973232   0.047337   # F_
 195 1 3   0.180895   6.508832  22.068168   0.000000   # C_3
 196 1 4  -0.270627   5.924920  24.391713   0.100860   # F_
 197 1 3  -0.017918   6.204907  20.691093   0.000000   # C_3
 198 1 3   0.052451   7.243093  19.652907   0.000000   # C_3
 199 1 4  -0.313560   4.345318  19.119828   0.497307   # F_
 200 1 3   0.081127   6.939168  18.275832   0.000000   # C_3
 201 1 4  -0.273613   7.723993  22.508993   0.649807   # F_
 202 1 3   0.090905   8.620168  19.956832   0.000000   # C_3
 203 1 3   0.194168   7.912803  17.339851   0.000000   # C_3
 204 1 4  -0.092869   5.671828  17.793318  26.398693   # F_
 205 1 3   0.197599   9.556149  18.983197   0.000000   # C_3
 206 1 4  -0.081886   9.060993  21.171993  26.246193   # F_
 207 1 3  -0.202477   9.238776  17.657224   0.000000   # C_3
 208 1 3   0.518531  10.295789  16.600211   0.000000   # C_3
 209 1 4  -0.130123   7.525232  15.947176  26.848394   # F_
 210 1 4  -0.120372  10.943713  19.372920  26.795409   # F_
 211 1 2  -0.632077   9.881590  15.381822   0.000000   # O_3
 212 1 2  -0.629887  11.514178  17.014410   0.000000   # O_3
 213 1 2  -0.524468  24.962178  23.329590   0.000000   # O_3
 214 1 3   0.540856  23.743789  23.743789   0.000000   # C_3
 215 1 2  -0.519802  23.329590  24.962178   0.000000   # O_3
 216 1 3  -0.224531  22.686776  22.686776   0.000000   # C_3
 217 1 3   0.324509  23.004149  21.360803   0.000000   # C_3
 218 1 3   0.324091  21.360803  23.004149   0.000000   # C_3
 219 1 3   0.186665  22.068168  20.387168   0.000000   # C_3
 220 1 4  -0.287068  24.396824  20.973232   0.053254   # F_
 221 1 3   0.187377  20.387168  22.068168   0.000000   # C_3
 222 1 4  -0.276574  20.974308  24.395479   0.089026   # F_
 223 1 3  -0.017950  20.691093  20.691093   0.000000   # C_3
 224 1 3   0.059601  19.652907  19.652907   0.000000   # C_3
 225 1 4  -0.275263  22.568972  19.114987   0.468259   # F_
 226 1 3   0.085455  19.956832  18.275832   0.000000   # C_3
 227 1 4  -0.272699  19.125208  22.544496   0.521513   # F_
 228 1 3   0.088048  18.275832  19.956832   0.000000   # C_3
 229 1 3   0.202277  18.983197  17.339851   0.000000   # C_3
 230 1 4  -0.066161  21.229013  17.775028  26.427472   # F_
 231 1 3   0.203231  17.339851  18.983197   0.000000   # C_3
 232 1 4  -0.068696  17.799504  21.218792  26.374487   # F_
 233 1 3  -0.201242  17.657224  17.657224   0.000000   # C_3
 234 1 3   0.521119  16.600211  16.600211   0.000000   # C_3
 235 1 4  -0.117311  19.370768  15.947176  26.843015   # F_
 236 1 4  -0.115593  15.948252  19.369692  26.807512   # F_
 237 1 2  -0.628304  17.014410  15.381822   0.000000   # O_3
 238 1 2  -0.627039  15.381822  17.014410   0.000000   # O_3
 239 1 2  -0.533043  24.962178   3.566410   0.000000   # O_3
 240 1 3   0.551073  23.743789   3.152211   0.000000   # C_3
 241 1 2  -0.618024  23.329590   1.933822   0.000000   # O_3
 242 1 3  -0.245656  22.686776   4.209224   0.000000   # C_3
 243 1 3   0.324113  23.004149   5.535197   0.000000   # C_3
 244 1 3   0.310778  21.360803   3.891851   0.000000   # C_3
 245 1 3   0.180861  22.068168   6.508832   0.000000   # C_3
 246 1 4  -0.290160  24.396555   5.922499   0.059440   # F_
 247 1 3   0.181766  20.387168   4.827832   0.000000   # C_3
 248 1 4  -0.349019  20.971618   2.499714   0.056482   # F_
 249 1 3  -0.026071  20.691093   6.204907   0.000000   # C_3
 250 1 3   0.054677  19.652907   7.243093   0.000000   # C_3
 251 1 4  -0.277239  22.587530   7.782358   0.445398   # F_
 252 1 3   0.082096  19.956832   8.620168   0.000000   # C_3
 253 1 4  -0.313917  19.138387   4.329449   0.457501   # F_
 254 1 3   0.081861  18.275832   6.939168   0.000000   # C_3
 255 1 3   0.200345  18.983197   9.556149   0.000000   # C_3
 256 1 4  -0.066909  21.230358   9.139530  26.450602   # F_
 257 1 3   0.194770  17.339851   7.912803   0.000000   # C_3
 258 1 4  -0.093092  17.777449   5.690387  26.438499   # F_
 259 1 3  -0.202931  17.657224   9.238776   0.000000   # C_3
 260 1 3   0.519178  16.600211  10.295789   0.000000   # C_3
 261 1 4  -0.117375  19.370499  10.948555  26.836291   # F_
 262 1 4  -0.129566  15.947714   7.523618  26.838712   # F_
 263 1 2  -0.628701  17.014410  11.514178   0.000000   # O_3
 264 1 2  -0.631522  15.381822   9.881590   0.000000   # O_3
 265 1 2  -0.653040   0.000000   1.933822   3.566410   # O_3
 266 1 3   0.529661   0.000000   3.152211   3.152211   # C_3
 267 1 2  -0.640543   0.000000   3.566410   1.933822   # O_3
 268 1 3  -0.208386   0.000000   4.209224   4.209224   # C_3
 269 1 3   0.192415   0.000000   3.891851   5.535197   # C_3
 270 1 3   0.195705   0.000000   5.535197   3.891851   # C_3
 271 1 3   0.079460   0.000000   4.827832   6.508832   # C_3
 272 1 4  -0.160619  26.859421   2.500790   5.921961   # F_
 273 1 3   0.083858   0.000000   6.508832   4.827832   # C_3
 274 1 4  -0.134335  26.860766   5.922768   2.499445   # F_
 275 1 3   0.049979   0.000000   6.204907   6.204907   # C_3
 276 1 3  -0.016665   0.000000   7.243093   7.243093   # C_3
 277 1 4  -0.108511  26.274164   4.398841   7.743627   # F_
 278 1 3   0.165774   0.000000   6.939168   8.620168   # C_3
 279 1 4  -0.105415  26.219028   7.734483   4.427082   # F_
 280 1 3   0.163477   0.000000   8.620168   6.939168   # C_3
 281 1 3   0.315056   0.000000   7.912803   9.556149   # C_3
 282 1 4  -0.310151   0.621836   5.704373   9.049159   # F_
 283 1 3   0.315084   0.000000   9.556149   7.912803   # C_3
 284 1 4  -0.307130   0.677241   9.020918   5.713517   # F_
 285 1 3  -0.262313   0.000000   9.238776   9.238776   # C_3
 286 1 3   0.550879   0.000000  10.295789  10.295789   # C_3
 287 1 4  -0.339315   0.036579   7.526039  10.947210   # F_
 288 1 4  -0.340149   0.035234  10.948555   7.525501   # F_
 289 1 2  -0.612119   0.000000   9.881590  11.514178   # O_3
 290 1 2  -0.612449   0.000000  11.514178   9.881590   # O_3
 291 1 2  -0.643485   0.000000   1.933822  23.329590   # O_3
 292 1 3   0.518297   0.000000   3.152211  23.743789   # C_3
 293 1 2  -0.541693   0.000000   3.566410  24.962178   # O_3
 294 1 3  -0.187078   0.000000   4.209224  22.686776   # C_3
 295 1 3   0.192857   0.000000   3.891851  21.360803   # C_3
 296 1 3   0.206603   0.000000   5.535197  23.004149   # C_3
 297 1 3   0.086146   0.000000   4.827832  20.387168   # C_3
 298 1 4  -0.158727  26.858615   2.500521  20.973770   # F_
 299 1 3   0.101069   0.000000   6.508832  22.068168   # C_3
 300 1 4  -0.065593  26.860497   5.922768  24.396286   # F_
 301 1 3   0.051807   0.000000   6.204907  20.691093   # C_3
 302 1 3  -0.011185   0.000000   7.243093  19.652907   # C_3
 303 1 4  -0.105133  26.290302   4.392655  19.145380   # F_
 304 1 3   0.168219   0.000000   6.939168  18.275832   # C_3
 305 1 4  -0.072579  26.218221   7.734483  22.468649   # F_
 306 1 3   0.170234   0.000000   8.620168  19.956832   # C_3
 307 1 3   0.319080   0.000000   7.912803  17.339851   # C_3
 308 1 4  -0.305153   0.605698   5.697380  17.840386   # F_
 309 1 3   0.321127   0.000000   9.556149  18.983197   # C_3
 310 1 4  -0.281591   0.677779   9.020649  21.182483   # F_
 311 1 3  -0.259736   0.000000   9.238776  17.657224   # C_3
 312 1 3   0.552984   0.000000  10.295789  16.600211   # C_3
 313 1 4  -0.333292   0.037116   7.525770  15.948521   # F_
 314 1 4  -0.325554   0.035503  10.948555  19.370499   # F_
 315 1 2  -0.609220   0.000000   9.881590  15.381822   # O_3
 316 1 2  -0.608902   0.000000  11.514178  17.014410   # O_3
 317 1 2  -0.542975   0.000000  24.962178  23.329590   # O_3
 318 1 3   0.508360   0.000000  23.743789  23.743789   # C_3
 319 1 2  -0.532676   0.000000  23.329590  24.962178   # O_3
 320 1 3  -0.164740   0.000000  22.686776  22.686776   # C_3
 321 1 3   0.206290   0.000000  23.004149  21.360803   # C_3
 322 1 3   0.207333   0.000000  21.360803  23.004149   # C_3
 323 1 3   0.103688   0.000000  22.068168  20.387168   # C_3
 324 1 4  -0.084674  26.857808  24.395748  20.973501   # F_
 325 1 3   0.108701   0.000000  20.387168  22.068168   # C_3
 326 1 4  -0.064050  26.860497  20.973232  24.396286   # F_
 327 1 3   0.053239   0.000000  20.691093  20.691093   # C_3
 328 1 3  -0.005651   0.000000  19.652907  19.652907   # C_3
 329 1 4  -0.069627  26.306978  22.509800  19.139732   # F_
 330 1 3   0.172123   0.000000  19.956832  18.275832   # C_3
 331 1 4  -0.071788  26.216607  19.161517  22.467843   # F_
 332 1 3   0.170280   0.000000  18.275832  19.956832   # C_3
 333 1 3   0.321786   0.000000  18.983197  17.339851   # C_3
 334 1 4  -0.281005   0.589022  21.204268  17.834200   # F_
 335 1 3   0.322940   0.000000  17.339851  18.983197   # C_3
 336 1 4  -0.277680   0.679393  17.876157  21.182483   # F_
 337 1 3  -0.260025   0.000000  17.657224  17.657224   # C_3
 338 1 3   0.552875   0.000000  16.600211  16.600211   # C_3
 339 1 4  -0.325984   0.038461  19.370499  15.948252   # F_
 340 1 4  -0.324022   0.035234  15.947445  19.370768   # F_
 341 1 2  -0.609573   0.000000  17.014410  15.381822   # O_3
 342 1 2  -0.608477   0.000000  15.381822  17.014410   # O_3
 343 1 2  -0.551381   0.000000  24.962178   3.566410   # O_3
 344 1 3   0.519263   0.000000  23.743789   3.152211   # C_3
 345 1 2  -0.630383   0.000000  23.329590   1.933822   # O_3
 346 1 3  -0.185628   0.000000  22.686776   4.209224   # C_3
 347 1 3   0.205820   0.000000  23.004149   5.535197   # C_3
 348 1 3   0.196534   0.000000  21.360803   3.891851   # C_3
 349 1 3   0.097983   0.000000  22.068168   6.508832   # C_3
 350 1 4  -0.085806  26.859421  24.395210   5.922230   # F_
 351 1 3   0.091832   0.000000  20.387168   4.827832   # C_3
 352 1 4  -0.132219  26.860766  20.973232   2.499445   # F_
 353 1 3   0.052189   0.000000  20.691093   6.204907   # C_3
 354 1 3  -0.010118   0.000000  19.652907   7.243093   # C_3
 355 1 4  -0.072297  26.280620  22.499580   7.746586   # F_
 356 1 3   0.172218   0.000000  19.956832   8.620168   # C_3
 357 1 4  -0.103259  26.217952  19.161517   4.427620   # F_
 358 1 3   0.166074   0.000000  18.275832   6.939168   # C_3
 359 1 3   0.322284   0.000000  18.983197   9.556149   # C_3
 360 1 4  -0.281380   0.615649  21.194586   9.051580   # F_
 361 1 3   0.319565   0.000000  17.339851   7.912803   # C_3
 362 1 4  -0.301839   0.678048  17.875620   5.713517   # F_
 363 1 3  -0.259284   0.000000  17.657224   9.238776   # C_3
 364 1 3   0.553316   0.000000  16.600211  10.295789   # C_3
 365 1 4  -0.322413   0.036579  19.370230  10.947210   # F_
 366 1 4  -0.333210   0.035234  15.947445   7.525232   # F_
 367 1 2  -0.607640   0.000000  17.014410  11.514178   # O_3
 368 1 2  -0.608847   0.000000  15.381822   9.881590   # O_3
 369 1 2  -0.546556   3.566410  13.448000  15.381822   # O_3
 370 1 3   0.564286   3.152211  13.448000  16.600211   # C_3
 371 1 2  -0.556837   1.933822  13.448000  17.014410   # O_3
 372 1 3  -0.239267   4.209224  13.448000  17.657224   # C_3
 373 1 3   0.335005   5.535197  13.448000  17.339851   # C_3
 374 1 3   0.334899   3.891851  13.448000  18.983197   # C_3
 375 1 3   0.192970   6.508832  13.448000  18.275832   # C_3
 376 1 4  -0.289975   5.925727  13.470593  15.948252   # F_
 377 1 3   0.199242   4.827832  13.448000  19.956832   # C_3
 378 1 4  -0.293321   2.504018  13.582749  19.368616   # F_
 379 1 3   0.023094   6.204907  13.448000  19.652907   # C_3
 380 1 3   0.021332   7.243093  13.448000  20.691093   # C_3
 381 1 4  -0.244946   7.775096  13.968707  17.775835   # F_
 382 1 3   0.196961   8.620168  13.448000  20.387168   # C_3
 383 1 4  -0.241619   4.269740  13.813517  21.215834   # F_
 384 1 3   0.206364   6.939168  13.448000  22.068168   # C_3
 385 1 3   0.333306   9.556149  13.448000  21.360803   # C_3
 386 1 4  -0.244023   9.120165  12.927293  19.120904   # F_
 387 1 3   0.338517   7.912803  13.448000  23.004149   # C_3
 388 1 4  -0.233964   5.680166  13.082483  22.626260   # F_
 389 1 3  -0.221759   9.238776  13.448000  22.686776   # C_3
 390 1 3   0.553579  10.295789  13.448000  23.743789   # C_3
 391 1 4  -0.286983  10.947748  13.425407  20.970273   # F_
 392 1 4  -0.253885   7.527384  13.313251  24.391982   # F_
 393 1 2  -0.538635  11.514178  13.448000  23.329590   # O_3
 394 1 2  -0.471024   9.881590  13.448000  24.962178   # O_3
 395 1 2  -0.536545  23.329590  13.448000  15.381822   # O_3
 396 1 3   0.552099  23.743789  13.448000  16.600211   # C_3
 397 1 2  -0.457240  24.962178  13.448000  17.014410   # O_3
 398 1 3  -0.214100  22.686776  13.448000  17.657224   # C_3
 399 1 3   0.331563  21.360803  13.448000  17.339851   # C_3
 400 1 3   0.342704  23.004149  13.448000  18.983197   # C_3
 401 1 3   0.207335  20.387168  13.448000  18.275832   # C_3
 402 1 4  -0.285616  20.967584  13.391787  15.950404   # F_
 403 1 3   0.217495  22.068168  13.448000  19.956832   # C_3
 404 1 4  -0.222558  24.394403  13.360050  19.369961   # F_
 405 1 3   0.030174  20.691093  13.448000  19.652907   # C_3
 406 1 3   0.031918  19.652907  13.448000  20.691093   # C_3
 407 1 4  -0.254638  19.194868  12.680119  17.924032   # F_
 408 1 3   0.205123  18.275832  13.448000  20.387168   # C_3
 409 1 4  -0.211198  22.568165  12.978127  21.204537   # F_
 410 1 3   0.214001  19.956832  13.448000  22.068168   # C_3
 411 1 3   0.332597  17.339851  13.448000  21.360803   # C_3
 412 1 4  -0.253261  17.924032  14.215881  19.194868   # F_
 413 1 3   0.341944  18.983197  13.448000  23.004149   # C_3
 414 1 4  -0.213442  21.204537  13.917873  22.568165   # F_
 415 1 3  -0.218674  17.657224  13.448000  22.686776   # C_3
 416 1 3   0.553767  16.600211  13.448000  23.743789   # C_3
 417 1 4  -0.286899  15.950404  13.504213  20.967584   # F_
 418 1 4  -0.243505  19.369961  13.535681  24.394403   # F_
 419 1 2  -0.538077  15.381822  13.448000  23.329590   # O_3
 420 1 2  -0.469358  17.014410  13.448000  24.962178   # O_3
 421 1 2  -0.537865  23.329590  13.448000  11.514178   # O_3
 422 1 3   0.551946  23.743789  13.448000  10.295789   # C_3
 423 1 2  -0.458972  24.962178  13.448000   9.881590   # O_3
 424 1 3  -0.218238  22.686776  13.448000   9.238776   # C_3
 425 1 3   0.332413  21.360803  13.448000   9.556149   # C_3
 426 1 3   0.340738  23.004149  13.448000   7.912803   # C_3
 427 1 3   0.197647  20.387168  13.448000   8.620168   # C_3
 428 1 4  -0.287743  20.969197  13.477855  10.946941   # F_
 429 1 3   0.204127  22.068168  13.448000   6.939168   # C_3
 430 1 4  -0.233972  24.393327  13.570915   7.529266   # F_
 431 1 3   0.023048  20.691093  13.448000   7.243093   # C_3
 432 1 3   0.025735  19.652907  13.448000   6.204907   # C_3
 433 1 4  -0.246583  19.138118  14.063918   9.072021   # F_
 434 1 3   0.192483  18.275832  13.448000   6.508832   # C_3
 435 1 4  -0.228364  22.616308  13.809213   5.662146   # F_
 436 1 3   0.191197  19.956832  13.448000   4.827832   # C_3
 437 1 3   0.335231  17.339851  13.448000   5.535197   # C_3
 438 1 4  -0.249833  17.823979  12.832082   7.757882   # F_
 439 1 3   0.332117  18.983197  13.448000   3.891851   # C_3
 440 1 4  -0.246187  21.233854  13.086787   4.279692   # F_
 441 1 3  -0.244894  17.657224  13.448000   4.209224   # C_3
 442 1 3   0.564777  16.600211  13.448000   3.152211   # C_3
 443 1 4  -0.291093  15.948790  13.418145   5.926803   # F_
 444 1 4  -0.321087  19.366734  13.325085   2.502673   # F_
 445 1 2  -0.548049  15.381822  13.448000   3.566410   # O_3
 446 1 2  -0.571250  17.014410  13.448000   1.933822   # O_3
 447 1 2  -0.546202   3.566410  13.448000  11.514178   # O_3
 448 1 3   0.563325   3.152211  13.448000  10.295789   # C_3
 449 1 2  -0.558603   1.933822  13.448000   9.881590   # O_3
 450 1 3  -0.239579   4.209224  13.448000   9.238776   # C_3
 451 1 3   0.332225   5.535197  13.448000   9.556149   # C_3
 452 1 3   0.328754   3.891851  13.448000   7.912803   # C_3
 453 1 3   0.193161   6.508832  13.448000   8.620168   # C_3
 454 1 4  -0.287749   5.923037  13.452303  10.949631   # F_
 455 1 3   0.196154   4.827832  13.448000   6.939168   # C_3
 456 1 4  -0.304486   2.504287  13.583825   7.527115   # F_
 457 1 3   0.012551   6.204907  13.448000   7.243093   # C_3
 458 1 3   0.013133   7.243093  13.448000   6.204907   # C_3
 459 1 4  -0.241352   7.797150  13.570108   9.226135   # F_
 460 1 3   0.191572   8.620168  13.448000   6.508832   # C_3
 461 1 4  -0.267910   4.270816  13.815937   5.683125   # F_
 462 1 3   0.192485   6.939168  13.448000   4.827832   # C_3
 463 1 3   0.332307   9.556149  13.448000   5.535197   # C_3
 464 1 4  -0.241801   9.226404  13.325892   7.797150   # F_
 465 1 3   0.324702   7.912803  13.448000   3.891851   # C_3
 466 1 4  -0.274417   5.683125  13.080063   4.270816   # F_
 467 1 3  -0.245248   9.238776  13.448000   4.209224   # C_3
 468 1 3   0.563659  10.295789  13.448000   3.152211   # C_3
 469 1 4  -0.289460  10.949631  13.443697   5.923037   # F_
 470 1 4  -0.331645   7.527384  13.312175   2.504287   # F_
 471 1 2  -0.548237  11.514178  13.448000   3.566410   # O_3
 472 1 2  -0.573253   9.881590  13.448000   1.933822   # O_3
 473 1 2  -0.556586   1.933822  17.014410  13.448000   # O_3
 474 1 3   0.564947   3.152211  16.600211  13.448000   # C_3
 475 1 2  -0.545779   3.566410  15.381822  13.448000   # O_3
 476 1 3  -0.239269   4.209224  17.657224  13.448000   # C_3
 477 1 3   0.338161   3.891851  18.983197  13.448000   # C_3
 478 1 3   0.336811   5.535197  17.339851  13.448000   # C_3
 479 1 3   0.193062   4.827832  19.956832  13.448000   # C_3
 480 1 4  -0.295834   2.500521  19.373727  13.413573   # F_
 481 1 3   0.192978   6.508832  18.275832  13.448000   # C_3
 482 1 4  -0.288652   5.923306  15.951480  13.338264   # F_
 483 1 3   0.033046   6.204907  19.652907  13.448000   # C_3
 484 1 3   0.030008   7.243093  20.691093  13.448000   # C_3
 485 1 4  -0.243134   4.412020  21.204000  12.788779   # F_
 486 1 3   0.203687   6.939168  22.068168  13.448000   # C_3
 487 1 4  -0.248636   7.744972  17.841193  12.787165   # F_
 488 1 3   0.198109   8.620168  20.387168  13.448000   # C_3