 (written by mofun)

1064 atoms
0 bonds
0 angles
0 dihedrals
0 impropers

4 atom types
   0.000000  26.896000 xlo xhi
   0.000000  26.896000 ylo yhi
   0.000000  26.896000 zlo zhi

Masses

 1 91.2240   # Zr3+4
 2 15.9994   # O_3
 3 12.0107   # C_3
 4 1.0079   # H_

Pair Coeffs

 1   0.069000   2.783168 # Zr3+4
 2   0.060000   3.118146 # O_3
 3   0.105000   3.430851 # C_3
 4   0.044000   2.571134 # H_

Atoms

 1 1 1   3.190220   2.475508   0.000000   0.000000   # Zr3+4
 2 1 1   3.189510  24.420492   0.000000   0.000000   # Zr3+4
 3 1 1   3.188170   0.000000   2.475508   0.000000   # Zr3+4
 4 1 1   3.187660   0.000000  24.420492   0.000000   # Zr3+4
 5 1 1   3.190240   0.000000   0.000000   2.475508   # Zr3+4
 6 1 1   3.189530   0.000000   0.000000  24.420492   # Zr3+4
 7 1 1   3.214940   2.475508  13.448000  13.448000   # Zr3+4
 8 1 1   3.213780  24.420492  13.448000  13.448000   # Zr3+4
 9 1 1   3.201470   0.000000  15.923508  13.448000   # Zr3+4
 10 1 1   3.201430   0.000000  10.972492  13.448000   # Zr3+4
 11 1 1   3.201440   0.000000  13.448000  15.923508   # Zr3+4
 12 1 1   3.201380   0.000000  13.448000  10.972492   # Zr3+4
 13 1 1   3.203760  15.923508   0.000000  13.448000   # Zr3+4
 14 1 1   3.203720  10.972492   0.000000  13.448000   # Zr3+4
 15 1 1   3.215050  13.448000   2.475508  13.448000   # Zr3+4
 16 1 1   3.214090  13.448000  24.420492  13.448000   # Zr3+4
 17 1 1   3.203620  13.448000   0.000000  15.923508   # Zr3+4
 18 1 1   3.203580  13.448000   0.000000  10.972492   # Zr3+4
 19 1 1   3.201630  15.923508  13.448000   0.000000   # Zr3+4
 20 1 1   3.201590  10.972492  13.448000   0.000000   # Zr3+4
 21 1 1   3.201620  13.448000  15.923508   0.000000   # Zr3+4
 22 1 1   3.201580  13.448000  10.972492   0.000000   # Zr3+4
 23 1 1   3.215460  13.448000  13.448000   2.475508   # Zr3+4
 24 1 1   3.214330  13.448000  13.448000  24.420492   # Zr3+4
 25 1 2  -1.324650   1.221078   1.221078   1.221078   # O_3
 26 1 2  -1.150180  25.674922  25.674922   1.221078   # O_3
 27 1 2  -1.135440  25.674922   1.221078  25.674922   # O_3
 28 1 2  -1.150330   1.221078  25.674922  25.674922   # O_3
 29 1 2  -1.228040   1.221078   1.221078  25.674922   # O_3
 30 1 2  -1.060520  25.674922  25.674922  25.674922   # O_3
 31 1 2  -1.242930   1.221078  25.674922   1.221078   # O_3
 32 1 2  -1.228190  25.674922   1.221078   1.221078   # O_3
 33 1 2  -1.273640   1.221078  14.669078  14.669078   # O_3
 34 1 2  -1.178240  25.674922  12.226922  14.669078   # O_3
 35 1 2  -1.178280  25.674922  14.669078  12.226922   # O_3
 36 1 2  -1.273720   1.221078  12.226922  12.226922   # O_3
 37 1 2  -1.273760   1.221078  14.669078  12.226922   # O_3
 38 1 2  -1.178080  25.674922  12.226922  12.226922   # O_3
 39 1 2  -1.273680   1.221078  12.226922  14.669078   # O_3
 40 1 2  -1.178360  25.674922  14.669078  14.669078   # O_3
 41 1 2  -1.269440  14.669078   1.221078  14.669078   # O_3
 42 1 2  -1.189840  12.226922  25.674922  14.669078   # O_3
 43 1 2  -1.269460  12.226922   1.221078  12.226922   # O_3
 44 1 2  -1.189790  14.669078  25.674922  12.226922   # O_3
 45 1 2  -1.269290  14.669078   1.221078  12.226922   # O_3
 46 1 2  -1.188460  12.226922  25.674922  12.226922   # O_3
 47 1 2  -1.188750  14.669078  25.674922  14.669078   # O_3
 48 1 2  -1.269250  12.226922   1.221078  14.669078   # O_3
 49 1 2  -1.273980  14.669078  14.669078   1.221078   # O_3
 50 1 2  -1.274040  12.226922  12.226922   1.221078   # O_3
 51 1 2  -1.179490  12.226922  14.669078  25.674922   # O_3
 52 1 2  -1.179430  14.669078  12.226922  25.674922   # O_3
 53 1 2  -1.177790  14.669078  14.669078  25.674922   # O_3
 54 1 2  -1.177470  12.226922  12.226922  25.674922   # O_3
 55 1 2  -1.273580  14.669078  12.226922   1.221078   # O_3
 56 1 2  -1.273610  12.226922  14.669078   1.221078   # O_3
 57 1 2  -0.676922   3.566410   0.000000   1.933822   # O_3
 58 1 3   0.502164   3.152211   0.000000   3.152211   # C_3
 59 1 2  -0.676644   1.933822   0.000000   3.566410   # O_3
 60 1 3  -0.202924   4.209224   0.000000   4.209224   # C_3
 61 1 3   0.097609   5.535197   0.000000   3.891851   # C_3
 62 1 3   0.098362   3.891851   0.000000   5.535197   # C_3
 63 1 3  -0.146991   6.508832   0.000000   4.827832   # C_3
 64 1 4  -0.011997   5.779950   0.000000   2.996214   # H_
 65 1 3  -0.148049   4.827832   0.000000   6.508832   # C_3
 66 1 4  -0.011101   2.996214   0.000000   5.779950   # H_
 67 1 3   0.033198   6.204907   0.000000   6.204907   # C_3
 68 1 3   0.086601   7.243093   0.000000   7.243093   # C_3
 69 1 4   0.056592   7.399090   0.000000   4.558872   # H_
 70 1 3  -0.222013   8.620168   0.000000   6.939168   # C_3
 71 1 4   0.058842   4.558872   0.000000   7.399090   # H_
 72 1 3  -0.192062   6.939168   0.000000   8.620168   # C_3
 73 1 3   0.215718   9.556149   0.000000   7.912803   # C_3
 74 1 4   0.088396   8.889128   0.000000   6.048910   # H_
 75 1 3   0.140731   7.912803   0.000000   9.556149   # C_3
 76 1 4   0.073584   6.048910   0.000000   8.889128   # H_
 77 1 3  -0.248673   9.238776   0.000000   9.238776   # C_3
 78 1 3   0.516052  10.295789   0.000000  10.295789   # C_3
 79 1 2  -0.165318  10.924348   0.490045   7.542983   # O_3
 80 1 4  -0.017221   7.668050   0.000000  10.451786   # H_
 81 1 2  -0.657620  11.514178   0.000000   9.881590   # O_3
 82 1 2  -0.667822   9.881590   0.000000  11.514178   # O_3
 83 1 3  -0.271897  11.472489   0.199837   6.230996   # C_3
 84 1 3  -0.006108  11.434028   1.501335   5.440523   # C_3
 85 1 4   0.163843  10.980292  26.219028   5.723738   # H_
 86 1 4   0.201512  12.509061  26.863994   6.356332   # H_
 87 1 4   0.029416  10.328333   1.660021   5.406903   # H_
 88 1 3  -0.100907  11.994540   1.381916   3.964470   # C_3
 89 1 4   0.032974  11.811109   2.441888   5.916044   # H_
 90 1 4   0.034877  11.236342   1.902892   3.335373   # H_
 91 1 4  -0.002649  12.084911   0.321676   3.646291   # H_
 92 1 3  -0.050434  13.366236   2.019083   3.650863   # C_3
 93 1 4   0.032399  13.247894   3.076364   3.877596   # H_
 94 1 3  -0.134981  13.822661   2.040868   2.193100   # C_3
 95 1 4   0.013649  14.078711   1.624787   4.417130   # H_
 96 1 4   0.009266  14.952024   2.098964   2.120750   # H_
 97 1 4   0.023391  13.392594   2.906113   1.637160   # H_
 98 1 4  -0.005066  13.431056   1.104888   1.765453   # H_
 99 1 2  -0.668152  23.329590   0.000000   1.933822   # O_3
 100 1 3   0.486028  23.743789   0.000000   3.152211   # C_3
 101 1 2  -0.601872  24.962178   0.000000   3.566410   # O_3
 102 1 3  -0.162261  22.686776   0.000000   4.209224   # C_3
 103 1 3   0.071661  21.360803   0.000000   3.891851   # C_3
 104 1 3   0.066244  23.004149   0.000000   5.535197   # C_3
 105 1 3  -0.122371  20.387168   0.000000   4.827832   # C_3
 106 1 4  -0.002304  21.116050   0.000000   2.996214   # H_
 107 1 3  -0.110488  22.068168   0.000000   6.508832   # C_3
 108 1 4   0.029195  23.899786   0.000000   5.779950   # H_
 109 1 3   0.017771  20.691093   0.000000   6.204907   # C_3
 110 1 3   0.086467  19.652907   0.000000   7.243093   # C_3
 111 1 4   0.045838  19.496910   0.000000   4.558872   # H_
 112 1 3  -0.205369  18.275832   0.000000   6.939168   # C_3
 113 1 4   0.044480  22.337128   0.000000   7.399090   # H_
 114 1 3  -0.194869  19.956832   0.000000   8.620168   # C_3
 115 1 3   0.165731  17.339851   0.000000   7.912803   # C_3
 116 1 4   0.072078  18.006872   0.000000   6.048910   # H_
 117 1 3   0.137754  18.983197   0.000000   9.556149   # C_3
 118 1 4   0.071329  20.847090   0.000000   8.889128   # H_
 119 1 3  -0.239271  17.657224   0.000000   9.238776   # C_3
 120 1 3   0.508838  16.600211   0.000000  10.295789   # C_3
 121 1 2  -0.152361  15.971652  26.405955   7.542983   # O_3
 122 1 4  -0.034969  19.227950   0.000000  10.451786   # H_
 123 1 2  -0.663721  15.381822   0.000000   9.881590   # O_3
 124 1 2  -0.672236  17.014410   0.000000  11.514178   # O_3
 125 1 3   0.345903  15.423511  26.696432   6.230996   # C_3
 126 1 3  -0.172807  15.461704  25.394665   5.440523   # C_3
 127 1 4  -0.107950  15.915708   0.676972   5.724007   # H_
 128 1 4  -0.136713  14.386939   0.032006   6.356601   # H_
 129 1 4   0.092170  16.567398  25.235710   5.406903   # H_
 130 1 3  -0.036333  14.901460  25.514084   3.964470   # C_3
 131 1 4   0.080464  15.084622  24.454112   5.916044   # H_
 132 1 4   0.038757  15.659927  24.993108   3.335642   # H_
 133 1 4   0.073030  14.810820  26.574593   3.646291   # H_
 134 1 3  -0.043675  13.529764  24.876917   3.650594   # C_3
 135 1 4   0.033023  13.648106  23.819636   3.877327   # H_
 136 1 3  -0.141337  13.073608  24.855132   2.192831   # C_3
 137 1 4   0.051774  12.817289  25.271213   4.416861   # H_
 138 1 4   0.046212  11.944245  24.799995   2.120481   # H_
 139 1 4   0.030372  13.501523  23.988273   1.637697   # H_
 140 1 4   0.060001  13.467903  25.789499   1.764109   # H_
 141 1 2  -0.594281  23.329590   0.000000  24.962178   # O_3
 142 1 3   0.472656  23.743789   0.000000  23.743789   # C_3
 143 1 2  -0.594016  24.962178   0.000000  23.329590   # O_3
 144 1 3  -0.126495  22.686776   0.000000  22.686776   # C_3
 145 1 3   0.050269  21.360803   0.000000  23.004149   # C_3
 146 1 3   0.049274  23.004149   0.000000  21.360803   # C_3
 147 1 3  -0.089818  20.387168   0.000000  22.068168   # C_3
 148 1 4   0.041148  21.116050   0.000000  23.899786   # H_
 149 1 3  -0.088562  22.068168   0.000000  20.387168   # C_3
 150 1 4   0.041205  23.899786   0.000000  21.116050   # H_
 151 1 3   0.004094  20.691093   0.000000  20.691093   # C_3
 152 1 3   0.112699  19.652907   0.000000  19.652907   # C_3
 153 1 4   0.053111  19.496910   0.000000  22.337128   # H_
 154 1 3  -0.234729  18.275832   0.000000  19.956832   # C_3
 155 1 4   0.049031  22.337128   0.000000  19.496910   # H_
 156 1 3  -0.205367  19.956832   0.000000  18.275832   # C_3
 157 1 3   0.226564  17.339851   0.000000  18.983197   # C_3
 158 1 4   0.099751  18.006872   0.000000  20.847090   # H_
 159 1 3   0.154538  18.983197   0.000000  17.339851   # C_3
 160 1 4   0.082587  20.847090   0.000000  18.006872   # H_
 161 1 3  -0.255510  17.657224   0.000000  17.657224   # C_3
 162 1 3   0.519302  16.600211   0.000000  16.600211   # C_3
 163 1 2  -0.166721  15.971652   0.490045  19.353017   # O_3
 164 1 4  -0.020863  19.227950   0.000000  16.444214   # H_
 165 1 2  -0.657737  15.381822   0.000000  17.014410   # O_3
 166 1 2  -0.667976  17.014410   0.000000  15.381822   # O_3
 167 1 3  -0.267079  15.423511   0.199837  20.665004   # C_3
 168 1 3  -0.005735  15.461972   1.501335  21.455477   # C_3
 169 1 4   0.167024  15.915708  26.219028  21.171993   # H_
 170 1 4   0.198974  14.386939  26.863994  20.539399   # H_
 171 1 4   0.033701  16.567667   1.660021  21.489097   # H_
 172 1 3  -0.104377  14.901460   1.381916  22.931530   # C_3
 173 1 4   0.033924  15.084891   2.441888  20.979956   # H_
 174 1 4   0.040584  15.659927   1.902892  23.560627   # H_
 175 1 4   0.007136  14.811089   0.321676  23.249709   # H_
 176 1 3  -0.040022  13.529764   2.019083  23.245137   # C_3
 177 1 4   0.033248  13.648106   3.076364  23.018404   # H_
 178 1 3  -0.154556  13.073608   2.040868  24.702900   # C_3
 179 1 4   0.014846  12.817289   1.624787  22.478870   # H_
 180 1 4   0.060799  11.944245   2.098157  24.775250   # H_
 181 1 4   0.070854  13.503137   2.906382  25.258840   # H_
 182 1 4   0.042269  13.465482   1.105157  25.130816   # H_
 183 1 2  -0.602196   3.566410   0.000000  24.962178   # O_3
 184 1 3   0.486614   3.152211   0.000000  23.743789   # C_3
 185 1 2  -0.668131   1.933822   0.000000  23.329590   # O_3
 186 1 3  -0.164307   4.209224   0.000000  22.686776   # C_3
 187 1 3   0.071717   5.535197   0.000000  23.004149   # C_3
 188 1 3   0.071518   3.891851   0.000000  21.360803   # C_3
 189 1 3  -0.116258   6.508832   0.000000  22.068168   # C_3
 190 1 4   0.029770   5.779950   0.000000  23.899786   # H_
 191 1 3  -0.122434   4.827832   0.000000  20.387168   # C_3
 192 1 4  -0.003346   2.996214   0.000000  21.116050   # H_
 193 1 3   0.019728   6.204907   0.000000  20.691093   # C_3
 194 1 3   0.086927   7.243093   0.000000  19.652907   # C_3
 195 1 4   0.056796   7.399090   0.000000  22.337128   # H_
 196 1 3  -0.206380   8.620168   0.000000  19.956832   # C_3
 197 1 4   0.040571   4.558872   0.000000  19.496910   # H_
 198 1 3  -0.196323   6.939168   0.000000  18.275832   # C_3
 199 1 3   0.167798   9.556149   0.000000  18.983197   # C_3
 200 1 4   0.076890   8.889128   0.000000  20.847090   # H_
 201 1 3   0.138349   7.912803   0.000000  17.339851   # C_3
 202 1 4   0.069899   6.048910   0.000000  18.006872   # H_
 203 1 3  -0.240191   9.238776   0.000000  17.657224   # C_3
 204 1 3   0.509169  10.295789   0.000000  16.600211   # C_3
 205 1 2  -0.152037  10.924348  26.405955  19.353017   # O_3
 206 1 4  -0.035779   7.668050   0.000000  16.444214   # H_
 207 1 2  -0.663545  11.514178   0.000000  17.014410   # O_3
 208 1 2  -0.672500   9.881590   0.000000  15.381822   # O_3
 209 1 3   0.340296  11.472489  26.696432  20.665004   # C_3
 210 1 3  -0.169225  11.434296  25.394665  21.455477   # C_3
 211 1 4  -0.100931  10.980292   0.676972  21.171993   # H_
 212 1 4  -0.133860  12.509061   0.032006  20.539399   # H_
 213 1 4   0.093598  10.328602  25.235710  21.489097   # H_
 214 1 3  -0.040918  11.994540  25.514084  22.931530   # C_3
 215 1 4   0.079612  11.811378  24.454112  20.979956   # H_
 216 1 4   0.043775  11.236073  24.993108  23.560627   # H_
 217 1 4   0.081057  12.085180  26.574593  23.249709   # H_
 218 1 3  -0.033619  13.366236  24.876917  23.245406   # C_3
 219 1 4   0.034120  13.247894  23.819636  23.018673   # H_
 220 1 3  -0.160456  13.822392  24.855132  24.703169   # C_3
 221 1 4   0.052675  14.078711  25.271213  22.479139   # H_
 222 1 4   0.096679  14.951755  24.799726  24.775519   # H_
 223 1 4   0.077020  13.394208  23.988542  25.258572   # H_
 224 1 4   0.105242  13.428366  25.789768  25.131622   # H_
 225 1 2  -0.682482   1.933822   3.566410   0.000000   # O_3
 226 1 3   0.499990   3.152211   3.152211   0.000000   # C_3
 227 1 2  -0.681662   3.566410   1.933822   0.000000   # O_3
 228 1 3  -0.201626   4.209224   4.209224   0.000000   # C_3
 229 1 3   0.092534   3.891851   5.535197   0.000000   # C_3
 230 1 3   0.093648   5.535197   3.891851   0.000000   # C_3
 231 1 3  -0.141966   4.827832   6.508832   0.000000   # C_3
 232 1 4  -0.011011   2.996214   5.779950   0.000000   # H_
 233 1 3  -0.143468   6.508832   4.827832   0.000000   # C_3
 234 1 4  -0.010054   5.779950   2.996214   0.000000   # H_
 235 1 3   0.024301   6.204907   6.204907   0.000000   # C_3
 236 1 3   0.101912   7.243093   7.243093   0.000000   # C_3
 237 1 4   0.054473   4.558872   7.399090   0.000000   # H_
 238 1 3  -0.250632   6.939168   8.620168   0.000000   # C_3
 239 1 4   0.057554   7.399090   4.558872   0.000000   # H_
 240 1 3  -0.210292   8.620168   6.939168   0.000000   # C_3
 241 1 3   0.254298   7.912803   9.556149   0.000000   # C_3
 242 1 4   0.102809   6.048910   8.889128   0.000000   # H_
 243 1 3   0.159387   9.556149   7.912803   0.000000   # C_3
 244 1 4   0.077592   8.889128   6.048910   0.000000   # H_
 245 1 3  -0.272149   9.238776   9.238776   0.000000   # C_3
 246 1 3   0.523226  10.295789  10.295789   0.000000   # C_3
 247 1 2  -0.237444   7.464447  10.974644   0.190693   # O_3
 248 1 4  -0.027002  10.451786   7.668050   0.000000   # H_
 249 1 2  -0.661117   9.881590  11.514178   0.000000   # O_3
 250 1 2  -0.675749  11.514178   9.881590   0.000000   # O_3
 251 1 3   0.056013   6.158646  11.054794   0.818445   # C_3
 252 1 3  -0.121336   5.722393  12.385877   1.426833   # C_3
 253 1 4   0.016545   6.062896  10.308430   1.643346   # H_
 254 1 4  -0.018537   5.413896  10.869480   0.010489   # H_
 255 1 4   0.057726   6.039766  12.299272   2.466632   # H_
 256 1 3  -0.056777   4.182866  12.520088   1.618601   # C_3
 257 1 4   0.032077   6.180701  13.288776   1.011021   # H_
 258 1 4   0.022822   3.845859  11.700298   2.308215   # H_
 259 1 4  -0.010114   3.648173  12.402284   0.659221   # H_
 260 1 3  -0.062656   3.721331  13.877529   2.254961   # C_3
 261 1 4   0.030033   4.084427  13.918411   3.290726   # H_
 262 1 3  -0.129731   2.168893  13.919218   2.239361   # C_3
 263 1 4   0.004621   4.138219  14.754339   1.706551   # H_
 264 1 4  -0.005622   1.854210  14.580322   1.402626   # H_
 265 1 4   0.023572   1.778364  14.360312   3.179376   # H_
 266 1 4   0.008388   1.701441  12.919494   2.117522   # H_
 267 1 2  -0.675837   1.933822  23.329590   0.000000   # O_3
 268 1 3   0.488947   3.152211  23.743789   0.000000   # C_3
 269 1 2  -0.620234   3.566410  24.962178   0.000000   # O_3
 270 1 3  -0.177256   4.209224  22.686776   0.000000   # C_3
 271 1 3   0.081370   3.891851  21.360803   0.000000   # C_3
 272 1 3   0.076561   5.535197  23.004149   0.000000   # C_3
 273 1 3  -0.137072   4.827832  20.387168   0.000000   # C_3
 274 1 4  -0.006581   2.996214  21.116050   0.000000   # H_
 275 1 3  -0.130017   6.508832  22.068168   0.000000   # C_3
 276 1 4   0.013751   5.779950  23.899786   0.000000   # H_
 277 1 3   0.030034   6.204907  20.691093   0.000000   # C_3
 278 1 3   0.058933   7.243093  19.652907   0.000000   # C_3
 279 1 4   0.048474   4.558872  19.496910   0.000000   # H_
 280 1 3  -0.169152   6.939168  18.275832   0.000000   # C_3
 281 1 4   0.043541   7.399090  22.337128   0.000000   # H_
 282 1 3  -0.175441   8.620168  19.956832   0.000000   # C_3
 283 1 3   0.104259   7.912803  17.339851   0.000000   # C_3
 284 1 4   0.045791   6.048910  18.006872   0.000000   # H_
 285 1 3   0.110980   9.556149  18.983197   0.000000   # C_3
 286 1 4   0.058652   8.889128  20.847090   0.000000   # H_
 287 1 3  -0.215286   9.238776  17.657224   0.000000   # C_3
 288 1 3   0.496329  10.295789  16.600211   0.000000   # C_3
 289 1 2  -0.066232   7.464447  15.921356  26.705307   # O_3
 290 1 4  -0.032408  10.451786  19.227950   0.000000   # H_
 291 1 2  -0.672246   9.881590  15.381822   0.000000   # O_3
 292 1 2  -0.676908  11.514178  17.014410   0.000000   # O_3
 293 1 3   0.026662   6.158646  15.841206  26.077824   # C_3
 294 1 3  -0.083736   5.722393  14.510123  25.469167   # C_3
 295 1 4   0.059512   6.062896  16.587570  25.252654   # H_
 296 1 4   0.080285   5.413896  16.026520  26.885511   # H_
 297 1 4   0.055646   6.039766  14.596728  24.429368   # H_
 298 1 3  -0.063384   4.182866  14.375912  25.277399   # C_3
 299 1 4   0.104374   6.180701  13.607224  25.884979   # H_
 300 1 4   0.043020   3.845859  15.195702  24.587785   # H_
 301 1 4   0.079037   3.648173  14.493716  26.236779   # H_
 302 1 3  -0.040584   3.721331  13.018471  24.640770   # C_3
 303 1 4   0.034489   4.084427  12.977589  23.605274   # H_
 304 1 3  -0.144827   2.168893  12.976782  24.656639   # C_3
 305 1 4   0.070997   4.138219  12.141661  25.189180   # H_
 306 1 4   0.068623   1.854210  12.315678  25.493374   # H_
 307 1 4   0.042807   1.778364  12.535688  23.716624   # H_
 308 1 4   0.047171   1.701441  13.976506  24.778478   # H_
 309 1 2  -0.600814  24.962178  23.329590   0.000000   # O_3
 310 1 3   0.473102  23.743789  23.743789   0.000000   # C_3
 311 1 2  -0.610929  23.329590  24.962178   0.000000   # O_3
 312 1 3  -0.132160  22.686776  22.686776   0.000000   # C_3
 313 1 3   0.050976  23.004149  21.360803   0.000000   # C_3
 314 1 3   0.049795  21.360803  23.004149   0.000000   # C_3
 315 1 3  -0.089302  22.068168  20.387168   0.000000   # C_3
 316 1 4   0.042216  23.899786  21.116050   0.000000   # H_
 317 1 3  -0.091188  20.387168  22.068168   0.000000   # C_3
 318 1 4   0.034363  21.116050  23.899786   0.000000   # H_
 319 1 3  -0.000961  20.691093  20.691093   0.000000   # C_3
 320 1 3   0.126219  19.652907  19.652907   0.000000   # C_3
 321 1 4   0.056128  22.337128  19.496910   0.000000   # H_
 322 1 3  -0.262086  19.956832  18.275832   0.000000   # C_3
 323 1 4   0.048329  19.496910  22.337128   0.000000   # H_
 324 1 3  -0.222781  18.275832  19.956832   0.000000   # C_3
 325 1 3   0.264046  18.983197  17.339851   0.000000   # C_3
 326 1 4   0.115195  20.847090  18.006872   0.000000   # H_
 327 1 3   0.172242  17.339851  18.983197   0.000000   # C_3
 328 1 4   0.086033  18.006872  20.847090   0.000000   # H_
 329 1 3  -0.278266  17.657224  17.657224   0.000000   # C_3
 330 1 3   0.526191  16.600211  16.600211   0.000000   # C_3
 331 1 2  -0.236513  19.431822  15.921356   0.190693   # O_3
 332 1 4  -0.030319  16.444214  19.227950   0.000000   # H_
 333 1 2  -0.661223  17.014410  15.381822   0.000000   # O_3
 334 1 2  -0.675823  15.381822  17.014410   0.000000   # O_3
 335 1 3   0.051468  20.737354  15.841206   0.818445   # C_3
 336 1 3  -0.113990  21.173607  14.510123   1.426833   # C_3
 337 1 4   0.025268  20.833104  16.587570   1.643346   # H_
 338 1 4  -0.009442  21.482104  16.026520   0.010489   # H_
 339 1 4   0.059063  20.856234  14.596728   2.466632   # H_
 340 1 3  -0.068304  22.713134  14.375912   1.618601   # C_3
 341 1 4   0.031074  20.715299  13.607224   1.011021   # H_
 342 1 4   0.045775  23.049872  15.195702   2.308215   # H_
 343 1 4   0.005131  23.247827  14.493716   0.659221   # H_
 344 1 3  -0.041619  23.174669  13.018471   2.254961   # C_3
 345 1 4   0.036867  22.811573  12.977589   3.290726   # H_
 346 1 3  -0.160034  24.727107  12.976782   2.239361   # C_3
 347 1 4   0.008621  22.757781  12.141661   1.706551   # H_
 348 1 4   0.050117  25.041790  12.315678   1.402626   # H_
 349 1 4   0.086875  25.117636  12.535688   3.179376   # H_
 350 1 4   0.071995  25.194559  13.976506   2.117522   # H_
 351 1 2  -0.608032  24.962178   3.566410   0.000000   # O_3
 352 1 3   0.487673  23.743789   3.152211   0.000000   # C_3
 353 1 2  -0.674738  23.329590   1.933822   0.000000   # O_3
 354 1 3  -0.172535  22.686776   4.209224   0.000000   # C_3
 355 1 3   0.079429  23.004149   5.535197   0.000000   # C_3
 356 1 3   0.078146  21.360803   3.891851   0.000000   # C_3
 357 1 3  -0.126134  22.068168   6.508832   0.000000   # C_3
 358 1 4   0.029152  23.899786   5.779950   0.000000   # H_
 359 1 3  -0.135318  20.387168   4.827832   0.000000   # C_3
 360 1 4  -0.011466  21.116050   2.996214   0.000000   # H_
 361 1 3   0.030616  20.691093   6.204907   0.000000   # C_3
 362 1 3   0.062726  19.652907   7.243093   0.000000   # C_3
 363 1 4   0.062007  22.337128   7.399090   0.000000   # H_
 364 1 3  -0.171251  19.956832   8.620168   0.000000   # C_3
 365 1 4   0.039313  19.496910   4.558872   0.000000   # H_
 366 1 3  -0.177745  18.275832   6.939168   0.000000   # C_3
 367 1 3   0.107869  18.983197   9.556149   0.000000   # C_3
 368 1 4   0.053177  20.847090   8.889128   0.000000   # H_
 369 1 3   0.113131  17.339851   7.912803   0.000000   # C_3
 370 1 4   0.057913  18.006872   6.048910   0.000000   # H_
 371 1 3  -0.216715  17.657224   9.238776   0.000000   # C_3
 372 1 3   0.497116  16.600211  10.295789   0.000000   # C_3
 373 1 2  -0.065654  19.431822  10.974644  26.705307   # O_3
 374 1 4  -0.033677  16.444214   7.668050   0.000000   # H_
 375 1 2  -0.672004  17.014410  11.514178   0.000000   # O_3
 376 1 2  -0.677197  15.381822   9.881590   0.000000   # O_3
 377 1 3   0.022499  20.737354  11.054794  26.077824   # C_3
 378 1 3  -0.077196  21.173607  12.385877  25.469167   # C_3
 379 1 4   0.066738  20.833104  10.308430  25.252654   # H_
 380 1 4   0.087600  21.482104  10.869480  26.885511   # H_
 381 1 4   0.056752  20.856234  12.299272  24.429368   # H_
 382 1 3  -0.074349  22.713134  12.520088  25.277399   # C_3
 383 1 4   0.102638  20.715299  13.288776  25.884979   # H_
 384 1 4   0.064685  23.049872  11.700298  24.587785   # H_
 385 1 4   0.092366  23.247827  12.402284  26.236779   # H_
 386 1 3  -0.020459  23.174669  13.877529  24.640770   # C_3
 387 1 4   0.041770  22.811573  13.918411  23.605274   # H_
 388 1 3  -0.174335  24.727107  13.919218  24.656639   # C_3
 389 1 4   0.074643  22.757781  14.754339  25.189180   # H_
 390 1 4   0.122598  25.041790  14.580322  25.493374   # H_
 391 1 4   0.105291  25.117636  14.360312  23.716624   # H_
 392 1 4   0.109019  25.194559  12.919494  24.778478   # H_
 393 1 2  -0.681063   0.000000   1.933822   3.566410   # O_3
 394 1 3   0.495915   0.000000   3.152211   3.152211   # C_3
 395 1 2  -0.681715   0.000000   3.566410   1.933822   # O_3
 396 1 3  -0.190861   0.000000   4.209224   4.209224   # C_3
 397 1 3   0.077584   0.000000   3.891851   5.535197   # C_3
 398 1 3   0.077928   0.000000   5.535197   3.891851   # C_3
 399 1 3  -0.124543   0.000000   4.827832   6.508832   # C_3
 400 1 4  -0.007122   0.000000   2.996214   5.779950   # H_
 401 1 3  -0.125018   0.000000   6.508832   4.827832   # C_3
 402 1 4  -0.006506   0.000000   5.779950   2.996214   # H_
 403 1 3   0.001367   0.000000   6.204907   6.204907   # C_3
 404 1 3   0.136239   0.000000   7.243093   7.243093   # C_3
 405 1 4   0.045263   0.000000   4.558872   7.399090   # H_
 406 1 3  -0.310450   0.000000   6.939168   8.620168   # C_3
 407 1 4   0.046757   0.000000   7.399090   4.558872   # H_
 408 1 3  -0.247696   0.000000   8.620168   6.939168   # C_3
 409 1 3   0.324686   0.000000   7.912803   9.556149   # C_3
 410 1 4   0.107717   0.000000   6.048910   8.889128   # H_
 411 1 3   0.197930   0.000000   9.556149   7.912803   # C_3
 412 1 4   0.092398   0.000000   8.889128   6.048910   # H_
 413 1 3  -0.312292   0.000000   9.238776   9.238776   # C_3
 414 1 3   0.539973   0.000000  10.295789  10.295789   # C_3
 415 1 2  -0.385402   0.142280   7.559659  10.926769   # O_3
 416 1 4  -0.042154   0.000000  10.451786   7.668050   # H_
 417 1 2  -0.663145   0.000000   9.881590  11.514178   # O_3
 418 1 2  -0.684106   0.000000  11.514178   9.881590   # O_3
 419 1 3   0.414776  26.769051   6.292050  11.321333   # C_3
 420 1 3  -0.337436   1.211665   5.716207  11.492930   # C_3
 421 1 4  -0.013544  26.021611   5.745255  10.679595   # H_
 422 1 4  -0.004870  26.382286   6.313567  12.362208   # H_
 423 1 4   0.103993   1.867658   5.915237  10.598638   # H_
 424 1 3   0.038789   1.298001   4.269740  11.780986   # C_3
 425 1 4   0.092917   1.609995   6.266768  12.385608   # H_
 426 1 4  -0.011524   1.479280   3.732358  10.807620   # H_
 427 1 4  -0.050081   0.324904   3.914444  12.214818   # H_
 428 1 3  -0.104836   2.484384   3.974691  12.768069   # C_3
 429 1 4   0.043606   3.370069   3.833756  12.159682   # H_
 430 1 3  -0.111299   2.284815   2.789922  13.725567   # C_3
 431 1 4   0.039061   2.733709   4.815998  13.428635   # H_
 432 1 4   0.036373   3.258450   2.630429  14.221529   # H_
 433 1 4  -0.000715   1.925485   1.866044  13.140579   # H_
 434 1 4   0.002721   1.535762   2.944843  14.513888   # H_
 435 1 2  -0.674501   0.000000   1.933822  23.329590   # O_3
 436 1 3   0.490935   0.000000   3.152211  23.743789   # C_3
 437 1 2  -0.608509   0.000000   3.566410  24.962178   # O_3
 438 1 3  -0.180480   0.000000   4.209224  22.686776   # C_3
 439 1 3   0.091505   0.000000   3.891851  21.360803   # C_3
 440 1 3   0.091830   0.000000   5.535197  23.004149   # C_3
 441 1 3  -0.146606   0.000000   4.827832  20.387168   # C_3
 442 1 4  -0.009891   0.000000   2.996214  21.116050   # H_
 443 1 3  -0.138972   0.000000   6.508832  22.068168   # C_3
 444 1 4   0.025922   0.000000   5.779950  23.899786   # H_
 445 1 3   0.047552   0.000000   6.204907  20.691093   # C_3
 446 1 3   0.046609   0.000000   7.243093  19.652907   # C_3
 447 1 4   0.053849   0.000000   4.558872  19.496910   # H_
 448 1 3  -0.141682   0.000000   6.939168  18.275832   # C_3
 449 1 4   0.072699   0.000000   7.399090  22.337128   # H_
 450 1 3  -0.150328   0.000000   8.620168  19.956832   # C_3
 451 1 3   0.076782   0.000000   7.912803  17.339851   # C_3
 452 1 4   0.052657   0.000000   6.048910  18.006872   # H_
 453 1 3   0.094879   0.000000   9.556149  18.983197   # C_3
 454 1 4   0.069041   0.000000   8.889128  20.847090   # H_
 455 1 3  -0.193566   0.000000   9.238776  17.657224   # C_3
 456 1 3   0.491255   0.000000  10.295789  16.600211   # C_3
 457 1 2   0.041540  26.753720   7.559659  15.969231   # O_3
 458 1 4  -0.003357   0.000000  10.451786  19.227950   # H_
 459 1 2  -0.674540   0.000000   9.881590  15.381822   # O_3
 460 1 2  -0.672476   0.000000  11.514178  17.014410   # O_3
 461 1 3  -0.271445   0.126949   6.291781  15.574667   # C_3
 462 1 3   0.136734  25.684066   5.716207  15.403070   # C_3
 463 1 4   0.063188   0.874389   5.744986  16.216405   # H_
 464 1 4   0.049287   0.513714   6.313567  14.533792   # H_
 465 1 4   0.036984  25.028073   5.915775  16.297093   # H_
 466 1 3  -0.145137  25.597999   4.269471  15.115283   # C_3
 467 1 4   0.029211  25.286274   6.266768  14.510123   # H_
 468 1 4   0.077273  25.415644   3.732627  16.088918   # H_
 469 1 4   0.110517  26.571096   3.913637  14.682795   # H_
 470 1 3  -0.006189  24.411885   3.974422  14.127662   # C_3
 471 1 4   0.022375  23.525931   3.833487  14.735512   # H_
 472 1 3  -0.163315  24.611723   2.789384  13.170433   # C_3
 473 1 4   0.029723  24.162828   4.815729  13.466827   # H_
 474 1 4   0.056365  23.638625   2.630698  12.673664   # H_
 475 1 4   0.049120  24.969977   1.865507  13.755690   # H_
 476 1 4   0.085872  25.361852   2.944036  12.382918   # H_
 477 1 2  -0.610527   0.000000  24.962178  23.329590   # O_3
 478 1 3   0.469626   0.000000  23.743789  23.743789   # C_3
 479 1 2  -0.600304   0.000000  23.329590  24.962178   # O_3
 480 1 3  -0.123561   0.000000  22.686776  22.686776   # C_3
 481 1 3   0.037075   0.000000  23.004149  21.360803   # C_3
 482 1 3   0.038442   0.000000  21.360803  23.004149   # C_3
 483 1 3  -0.075752   0.000000  22.068168  20.387168   # C_3
 484 1 4   0.037462   0.000000  23.899786  21.116050   # H_
 485 1 3  -0.074740   0.000000  20.387168  22.068168   # C_3
 486 1 4   0.045802   0.000000  21.116050  23.899786   # H_
 487 1 3  -0.021640   0.000000  20.691093  20.691093   # C_3
 488 1 3   0.160332   0.000000  19.652907  19.652907   # C_3
 489 1 4   0.041641   0.000000  22.337128  19.496910   # H_