 (written by mofun)

1088 atoms
0 bonds
0 angles
0 dihedrals
0 impropers

5 atom types
   0.000000  26.896000 xlo xhi
   0.000000  26.896000 ylo yhi
   0.000000  26.896000 zlo zhi

Masses

 1 91.2240   # Zr3+4
 2 15.9994   # O_3
 3 12.0107   # C_3
 4 1.0079   # H_
 5 14.0067   # N_3

Pair Coeffs

 1   0.069000   2.783168 # Zr3+4
 2   0.060000   3.118146 # O_3
 3   0.105000   3.430851 # C_3
 4   0.044000   2.571134 # H_
 5   0.069000   3.260689 # N_3

Atoms

 1 1 1   3.188580   2.475508   0.000000   0.000000   # Zr3+4
 2 1 1   3.187930  24.420492   0.000000   0.000000   # Zr3+4
 3 1 1   3.188330   0.000000   2.475508   0.000000   # Zr3+4
 4 1 1   3.187710   0.000000  24.420492   0.000000   # Zr3+4
 5 1 1   3.189690   0.000000   0.000000   2.475508   # Zr3+4
 6 1 1   3.188940   0.000000   0.000000  24.420492   # Zr3+4
 7 1 1   3.215080   2.475508  13.448000  13.448000   # Zr3+4
 8 1 1   3.213970  24.420492  13.448000  13.448000   # Zr3+4
 9 1 1   3.201880   0.000000  15.923508  13.448000   # Zr3+4
 10 1 1   3.201850   0.000000  10.972492  13.448000   # Zr3+4
 11 1 1   3.201980   0.000000  13.448000  15.923508   # Zr3+4
 12 1 1   3.201900   0.000000  13.448000  10.972492   # Zr3+4
 13 1 1   3.202010  15.923508   0.000000  13.448000   # Zr3+4
 14 1 1   3.201970  10.972492   0.000000  13.448000   # Zr3+4
 15 1 1   3.214910  13.448000   2.475508  13.448000   # Zr3+4
 16 1 1   3.213820  13.448000  24.420492  13.448000   # Zr3+4
 17 1 1   3.202160  13.448000   0.000000  15.923508   # Zr3+4
 18 1 1   3.202130  13.448000   0.000000  10.972492   # Zr3+4
 19 1 1   3.200610  15.923508  13.448000   0.000000   # Zr3+4
 20 1 1   3.200560  10.972492  13.448000   0.000000   # Zr3+4
 21 1 1   3.200610  13.448000  15.923508   0.000000   # Zr3+4
 22 1 1   3.200570  13.448000  10.972492   0.000000   # Zr3+4
 23 1 1   3.214720  13.448000  13.448000   2.475508   # Zr3+4
 24 1 1   3.213520  13.448000  13.448000  24.420492   # Zr3+4
 25 1 2  -1.327060   1.221078   1.221078   1.221078   # O_3
 26 1 2  -1.148400  25.674922  25.674922   1.221078   # O_3
 27 1 2  -1.138500  25.674922   1.221078  25.674922   # O_3
 28 1 2  -1.140570   1.221078  25.674922  25.674922   # O_3
 29 1 2  -1.227430   1.221078   1.221078  25.674922   # O_3
 30 1 2  -1.056380  25.674922  25.674922  25.674922   # O_3
 31 1 2  -1.236890   1.221078  25.674922   1.221078   # O_3
 32 1 2  -1.235140  25.674922   1.221078   1.221078   # O_3
 33 1 2  -1.272430   1.221078  14.669078  14.669078   # O_3
 34 1 2  -1.181270  25.674922  12.226922  14.669078   # O_3
 35 1 2  -1.181440  25.674922  14.669078  12.226922   # O_3
 36 1 2  -1.272670   1.221078  12.226922  12.226922   # O_3
 37 1 2  -1.272890   1.221078  14.669078  12.226922   # O_3
 38 1 2  -1.181380  25.674922  12.226922  12.226922   # O_3
 39 1 2  -1.272910   1.221078  12.226922  14.669078   # O_3
 40 1 2  -1.181900  25.674922  14.669078  14.669078   # O_3
 41 1 2  -1.271880  14.669078   1.221078  14.669078   # O_3
 42 1 2  -1.182780  12.226922  25.674922  14.669078   # O_3
 43 1 2  -1.272000  12.226922   1.221078  12.226922   # O_3
 44 1 2  -1.182790  14.669078  25.674922  12.226922   # O_3
 45 1 2  -1.272180  14.669078   1.221078  12.226922   # O_3
 46 1 2  -1.182670  12.226922  25.674922  12.226922   # O_3
 47 1 2  -1.183200  14.669078  25.674922  14.669078   # O_3
 48 1 2  -1.272200  12.226922   1.221078  14.669078   # O_3
 49 1 2  -1.274650  14.669078  14.669078   1.221078   # O_3
 50 1 2  -1.274850  12.226922  12.226922   1.221078   # O_3
 51 1 2  -1.175390  12.226922  14.669078  25.674922   # O_3
 52 1 2  -1.175280  14.669078  12.226922  25.674922   # O_3
 53 1 2  -1.176530  14.669078  14.669078  25.674922   # O_3
 54 1 2  -1.175990  12.226922  12.226922  25.674922   # O_3
 55 1 2  -1.275050  14.669078  12.226922   1.221078   # O_3
 56 1 2  -1.275020  12.226922  14.669078   1.221078   # O_3
 57 1 2  -0.685190   3.566410   0.000000   1.933822   # O_3
 58 1 3   0.516097   3.152211   0.000000   3.152211   # C_3
 59 1 2  -0.684300   1.933822   0.000000   3.566410   # O_3
 60 1 3  -0.247510   4.209224   0.000000   4.209224   # C_3
 61 1 3   0.153759   5.535197   0.000000   3.891851   # C_3
 62 1 3   0.150350   3.891851   0.000000   5.535197   # C_3
 63 1 3  -0.224380   6.508832   0.000000   4.827832   # C_3
 64 1 4  -0.036876   5.779950   0.000000   2.996214   # H_
 65 1 3  -0.216696   4.827832   0.000000   6.508832   # C_3
 66 1 4  -0.033260   2.996214   0.000000   5.779950   # H_
 67 1 3   0.118290   6.204907   0.000000   6.204907   # C_3
 68 1 3  -0.047892   7.243093   0.000000   7.243093   # C_3
 69 1 4   0.092727   7.399090   0.000000   4.558872   # H_
 70 1 3   0.012531   8.620168   0.000000   6.939168   # C_3
 71 1 4   0.077144   4.558872   0.000000   7.399090   # H_
 72 1 3  -0.077147   6.939168   0.000000   8.620168   # C_3
 73 1 3  -0.020670   9.556149   0.000000   7.912803   # C_3
 74 1 5  -0.121814   9.059918   0.759274   5.670215   # N_3
 75 1 3   0.020279   7.912803   0.000000   9.556149   # C_3
 76 1 4   0.025673   6.048910   0.000000   8.889128   # H_
 77 1 3  -0.133302   9.238776   0.000000   9.238776   # C_3
 78 1 3   0.470049  10.295789   0.000000  10.295789   # C_3
 79 1 4   0.035458  10.451786   0.000000   7.668050   # H_
 80 1 4   0.012941   7.668050   0.000000  10.451786   # H_
 81 1 2  -0.667738  11.514178   0.000000   9.881590   # O_3
 82 1 2  -0.669038   9.881590   0.000000  11.514178   # O_3
 83 1 4   0.077390   9.361960   1.712468   5.999153   # H_
 84 1 3  -0.268827  10.123654   0.174017   4.832135   # C_3
 85 1 3   0.256492  10.200039   0.915002   3.424668   # C_3
 86 1 3  -0.474029  11.522784   0.495155   2.772440   # C_3
 87 1 3  -0.262253  10.189281   2.457756   3.455867   # C_3
 88 1 3  -0.440865   9.076593   0.410433   2.467977   # C_3
 89 1 4   0.076536  10.946134   2.863079   4.174259   # H_
 90 1 4   0.082911   9.174495   2.811170   3.736930   # H_
 91 1 4   0.066492  10.465234   2.908264   2.502673   # H_
 92 1 4   0.098034  12.387760   1.015862   3.196859   # H_
 93 1 4   0.060590  11.481633   0.747709   1.679655   # H_
 94 1 4   0.204319  11.722891  26.363459   2.840218   # H_
 95 1 4   0.105647   8.129585   0.840231   2.795301   # H_
 96 1 4   0.190842   8.906610  26.219028   2.505900   # H_
 97 1 4   0.063523   9.298754   0.786439   1.441088   # H_
 98 1 4   0.166123   9.926507  25.988798   4.693083   # H_
 99 1 4   0.049194  11.137096   0.285636   5.333477   # H_
 100 1 2  -0.676106  23.329590   0.000000   1.933822   # O_3
 101 1 3   0.496697  23.743789   0.000000   3.152211   # C_3
 102 1 2  -0.612582  24.962178   0.000000   3.566410   # O_3
 103 1 3  -0.198648  22.686776   0.000000   4.209224   # C_3
 104 1 3   0.110811  21.360803   0.000000   3.891851   # C_3
 105 1 3   0.109050  23.004149   0.000000   5.535197   # C_3
 106 1 3  -0.175447  20.387168   0.000000   4.827832   # C_3
 107 1 4  -0.022309  21.116050   0.000000   2.996214   # H_
 108 1 3  -0.167100  22.068168   0.000000   6.508832   # C_3
 109 1 4   0.010025  23.899786   0.000000   5.779950   # H_
 110 1 3   0.076747  20.691093   0.000000   6.204907   # C_3
 111 1 3  -0.006715  19.652907   0.000000   7.243093   # C_3
 112 1 4   0.062552  19.496910   0.000000   4.558872   # H_
 113 1 3  -0.054417  18.275832   0.000000   6.939168   # C_3
 114 1 4   0.070785  22.337128   0.000000   7.399090   # H_
 115 1 3  -0.111210  19.956832   0.000000   8.620168   # C_3
 116 1 3   0.019933  17.339851   0.000000   7.912803   # C_3
 117 1 5  -0.090134  17.836082  26.136726   5.670215   # N_3
 118 1 3   0.053186  18.983197   0.000000   9.556149   # C_3
 119 1 4   0.045334  20.847090   0.000000   8.889128   # H_
 120 1 3  -0.161265  17.657224   0.000000   9.238776   # C_3
 121 1 3   0.479945  16.600211   0.000000  10.295789   # C_3
 122 1 4   0.007771  16.444214   0.000000   7.668050   # H_
 123 1 4   0.005158  19.227950   0.000000  10.451786   # H_
 124 1 2  -0.670782  15.381822   0.000000   9.881590   # O_3
 125 1 2  -0.670503  17.014410   0.000000  11.514178   # O_3
 126 1 4   0.101387  17.533771  25.183532   5.999153   # H_
 127 1 3   0.106166  16.772346  26.721983   4.832135   # C_3
 128 1 3   0.010188  16.695961  25.980998   3.424668   # C_3
 129 1 3   0.018341  15.373216  26.400845   2.772440   # C_3
 130 1 3  -0.169181  16.706719  24.438244   3.455867   # C_3
 131 1 3   0.004389  17.819407  26.485567   2.467977   # C_3
 132 1 4   0.058385  15.949866  24.032921   4.174259   # H_
 133 1 4   0.073083  17.721505  24.084830   3.736930   # H_
 134 1 4   0.045962  16.430766  23.988004   2.502673   # H_
 135 1 4   0.028632  14.508240  25.880138   3.196859   # H_
 136 1 4   0.014606  15.414367  26.148291   1.679655   # H_
 137 1 4  -0.074064  15.173109   0.532541   2.840218   # H_
 138 1 4   0.065141  18.766415  26.055769   2.795301   # H_
 139 1 4  -0.058734  17.989390   0.676972   2.505900   # H_
 140 1 4   0.021652  17.597246  26.109561   1.441088   # H_
 141 1 4  -0.056897  16.969493   0.907202   4.693083   # H_
 142 1 4   0.047871  15.758904  26.610633   5.333477   # H_
 143 1 2  -0.601394  23.329590   0.000000  24.962178   # O_3
 144 1 3   0.486348  23.743789   0.000000  23.743789   # C_3
 145 1 2  -0.606043  24.962178   0.000000  23.329590   # O_3
 146 1 3  -0.174467  22.686776   0.000000  22.686776   # C_3
 147 1 3   0.104894  21.360803   0.000000  23.004149   # C_3
 148 1 3   0.103271  23.004149   0.000000  21.360803   # C_3
 149 1 3  -0.169259  20.387168   0.000000  22.068168   # C_3
 150 1 4   0.011978  21.116050   0.000000  23.899786   # H_
 151 1 3  -0.164021  22.068168   0.000000  20.387168   # C_3
 152 1 4   0.014341  23.899786   0.000000  21.116050   # H_
 153 1 3   0.090046  20.691093   0.000000  20.691093   # C_3
 154 1 3  -0.028150  19.652907   0.000000  19.652907   # C_3
 155 1 4   0.079972  19.496910   0.000000  22.337128   # H_
 156 1 3   0.007456  18.275832   0.000000  19.956832   # C_3
 157 1 4   0.070186  22.337128   0.000000  19.496910   # H_
 158 1 3  -0.088626  19.956832   0.000000  18.275832   # C_3
 159 1 3  -0.013773  17.339851   0.000000  18.983197   # C_3
 160 1 5  -0.118843  17.836082   0.759274  21.225785   # N_3
 161 1 3   0.030906  18.983197   0.000000  17.339851   # C_3
 162 1 4   0.034714  20.847090   0.000000  18.006872   # H_
 163 1 3  -0.138498  17.657224   0.000000  17.657224   # C_3
 164 1 3   0.472345  16.600211   0.000000  16.600211   # C_3
 165 1 4   0.033697  16.444214   0.000000  19.227950   # H_
 166 1 4   0.010657  19.227950   0.000000  16.444214   # H_
 167 1 2  -0.667893  15.381822   0.000000  17.014410   # O_3
 168 1 2  -0.669028  17.014410   0.000000  15.381822   # O_3
 169 1 4   0.080774  17.533771   1.712468  20.896847   # H_
 170 1 3  -0.273661  16.772346   0.174017  22.063596   # C_3
 171 1 3   0.281638  16.695961   0.915002  23.471332   # C_3
 172 1 3  -0.495714  15.373216   0.495155  24.123560   # C_3
 173 1 3  -0.285007  16.706719   2.457756  23.440133   # C_3
 174 1 3  -0.464429  17.819407   0.410433  24.428023   # C_3
 175 1 4   0.087196  15.949866   2.863079  22.721472   # H_
 176 1 4   0.108437  17.721505   2.811170  23.159070   # H_
 177 1 4   0.109526  16.430766   2.908264  24.393327   # H_
 178 1 4   0.110136  14.508240   1.015862  23.699141   # H_
 179 1 4   0.118036  15.414367   0.747709  25.216345   # H_
 180 1 4   0.220222  15.173109  26.363459  24.055782   # H_
 181 1 4   0.135983  18.766415   0.840231  24.100699   # H_
 182 1 4   0.222347  17.989390  26.219028  24.390100   # H_
 183 1 4   0.134546  17.597246   0.786439  25.454912   # H_
 184 1 4   0.167344  16.969493  25.988798  22.202917   # H_
 185 1 4   0.050368  15.758904   0.285636  21.562523   # H_
 186 1 2  -0.607293   3.566410   0.000000  24.962178   # O_3
 187 1 3   0.494900   3.152211   0.000000  23.743789   # C_3
 188 1 2  -0.674269   1.933822   0.000000  23.329590   # O_3
 189 1 3  -0.193621   4.209224   0.000000  22.686776   # C_3
 190 1 3   0.103016   5.535197   0.000000  23.004149   # C_3
 191 1 3   0.107941   3.891851   0.000000  21.360803   # C_3
 192 1 3  -0.162618   6.508832   0.000000  22.068168   # C_3
 193 1 4   0.008774   5.779950   0.000000  23.899786   # H_
 194 1 3  -0.170406   4.827832   0.000000  20.387168   # C_3
 195 1 4  -0.016865   2.996214   0.000000  21.116050   # H_
 196 1 3   0.073863   6.204907   0.000000  20.691093   # C_3
 197 1 3  -0.006271   7.243093   0.000000  19.652907   # C_3
 198 1 4   0.062507   7.399090   0.000000  22.337128   # H_
 199 1 3  -0.053386   8.620168   0.000000  19.956832   # C_3
 200 1 4   0.063248   4.558872   0.000000  19.496910   # H_
 201 1 3  -0.110987   6.939168   0.000000  18.275832   # C_3
 202 1 3   0.019444   9.556149   0.000000  18.983197   # C_3
 203 1 5  -0.088663   9.059918  26.136726  21.225785   # N_3
 204 1 3   0.052397   7.912803   0.000000  17.339851   # C_3
 205 1 4   0.042518   6.048910   0.000000  18.006872   # H_
 206 1 3  -0.160849   9.238776   0.000000  17.657224   # C_3
 207 1 3   0.479818  10.295789   0.000000  16.600211   # C_3
 208 1 4   0.008227  10.451786   0.000000  19.227950   # H_
 209 1 4   0.004691   7.668050   0.000000  16.444214   # H_
 210 1 2  -0.670658  11.514178   0.000000  17.014410   # O_3
 211 1 2  -0.670691   9.881590   0.000000  15.381822   # O_3
 212 1 4   0.102555   9.361960  25.183532  20.896847   # H_
 213 1 3   0.094911  10.123654  26.721983  22.063596   # C_3
 214 1 3   0.039239  10.200039  25.980998  23.471332   # C_3
 215 1 3  -0.013113  11.522784  26.400845  24.123560   # C_3
 216 1 3  -0.191951  10.189281  24.438244  23.440133   # C_3
 217 1 3  -0.027642   9.076593  26.485567  24.428023   # C_3
 218 1 4   0.067960  10.946134  24.032921  22.721472   # H_
 219 1 4   0.094507   9.174495  24.084830  23.159070   # H_
 220 1 4   0.087659  10.465234  23.988004  24.393327   # H_
 221 1 4   0.042044  12.387760  25.880138  23.699141   # H_
 222 1 4   0.072622  11.481633  26.148291  25.216345   # H_
 223 1 4  -0.052080  11.722891   0.532541  24.055782   # H_
 224 1 4   0.094731   8.129585  26.055769  24.100699   # H_
 225 1 4  -0.021923   8.906610   0.676972  24.390100   # H_
 226 1 4   0.093086   9.298754  26.109561  25.454912   # H_
 227 1 4  -0.052440   9.926507   0.907202  22.202917   # H_
 228 1 4   0.049191  11.137096  26.610633  21.562523   # H_
 229 1 2  -0.687827   1.933822   3.566410   0.000000   # O_3
 230 1 3   0.507229   3.152211   3.152211   0.000000   # C_3
 231 1 2  -0.687170   3.566410   1.933822   0.000000   # O_3
 232 1 3  -0.228400   4.209224   4.209224   0.000000   # C_3
 233 1 3   0.118700   3.891851   5.535197   0.000000   # C_3
 234 1 3   0.121804   5.535197   3.891851   0.000000   # C_3
 235 1 3  -0.189688   4.827832   6.508832   0.000000   # C_3
 236 1 4  -0.032113   2.996214   5.779950   0.000000   # H_
 237 1 3  -0.186522   6.508832   4.827832   0.000000   # C_3
 238 1 4  -0.026022   5.779950   2.996214   0.000000   # H_
 239 1 3   0.073697   6.204907   6.204907   0.000000   # C_3
 240 1 3  -0.005326   7.243093   7.243093   0.000000   # C_3
 241 1 4   0.054572   4.558872   7.399090   0.000000   # H_
 242 1 3  -0.079760   6.939168   8.620168   0.000000   # C_3
 243 1 4   0.063212   7.399090   4.558872   0.000000   # H_
 244 1 3  -0.119948   8.620168   6.939168   0.000000   # C_3
 245 1 3   0.036343   7.912803   9.556149   0.000000   # C_3
 246 1 5   0.010393   5.523632   9.166695  26.544200   # N_3
 247 1 3   0.058135   9.556149   7.912803   0.000000   # C_3
 248 1 4   0.037981   8.889128   6.048910   0.000000   # H_
 249 1 3  -0.173767   9.238776   9.238776   0.000000   # C_3
 250 1 3   0.482534  10.295789  10.295789   0.000000   # C_3
 251 1 4   0.004209   7.668050  10.451786   0.000000   # H_
 252 1 4  -0.002801  10.451786   7.668050   0.000000   # H_
 253 1 2  -0.677611   9.881590  11.514178   0.000000   # O_3
 254 1 2  -0.677076  11.514178   9.881590   0.000000   # O_3
 255 1 4  -0.039572   5.346925   9.975726   0.282677   # H_
 256 1 3  -0.096933   5.366021   9.602679  25.138077   # C_3
 257 1 3   0.169841   3.883513   9.849584  24.677080   # C_3
 258 1 3  -0.243362   3.906913  10.625803  23.363210   # C_3
 259 1 3  -0.238190   3.105950  10.650816  25.735707   # C_3
 260 1 3  -0.240732   3.159742   8.523611  24.397362   # C_3
 261 1 4   0.098595   3.551617  11.672326  25.886324   # H_
 262 1 4   0.121194   3.136880  10.112358  26.688094   # H_
 263 1 4   0.078532   2.043827  10.794710  25.429092   # H_
 264 1 4   0.080564   4.343435  11.619610  23.533731   # H_
 265 1 4   0.073816   2.895085  10.740380  22.938254   # H_
 266 1 4   0.079931   4.526059  10.080352  22.625184   # H_
 267 1 4   0.093714   3.691207   7.971436  23.606081   # H_
 268 1 4   0.077780   2.125053   8.732862  24.045562   # H_
 269 1 4   0.119643   3.080937   7.874880  25.294343   # H_
 270 1 4   0.083805   5.838584   8.854163  24.465408   # H_
 271 1 4   0.083869   5.912548  10.563673  25.028073   # H_
 272 1 2  -0.680352   1.933822  23.329590   0.000000   # O_3
 273 1 3   0.503216   3.152211  23.743789   0.000000   # C_3
 274 1 2  -0.619926   3.566410  24.962178   0.000000   # O_3
 275 1 3  -0.219425   4.209224  22.686776   0.000000   # C_3
 276 1 3   0.139858   3.891851  21.360803   0.000000   # C_3
 277 1 3   0.132880   5.535197  23.004149   0.000000   # C_3
 278 1 3  -0.209064   4.827832  20.387168   0.000000   # C_3
 279 1 4  -0.027523   2.996214  21.116050   0.000000   # H_
 280 1 3  -0.195952   6.508832  22.068168   0.000000   # C_3
 281 1 4  -0.000951   5.779950  23.899786   0.000000   # H_
 282 1 3   0.112554   6.204907  20.691093   0.000000   # C_3
 283 1 3  -0.043886   7.243093  19.652907   0.000000   # C_3
 284 1 4   0.095866   4.558872  19.496910   0.000000   # H_
 285 1 3   0.020153   6.939168  18.275832   0.000000   # C_3
 286 1 4   0.079324   7.399090  22.337128   0.000000   # H_
 287 1 3  -0.078978   8.620168  19.956832   0.000000   # C_3
 288 1 3  -0.025265   7.912803  17.339851   0.000000   # C_3
 289 1 5  -0.215792   5.523632  17.729305   0.351800   # N_3
 290 1 3   0.022531   9.556149  18.983197   0.000000   # C_3
 291 1 4   0.032125   8.889128  20.847090   0.000000   # H_
 292 1 3  -0.133433   9.238776  17.657224   0.000000   # C_3
 293 1 3   0.470058  10.295789  16.600211   0.000000   # C_3
 294 1 4   0.027047   7.668050  16.444214   0.000000   # H_
 295 1 4   0.013503  10.451786  19.227950   0.000000   # H_
 296 1 2  -0.673266   9.881590  15.381822   0.000000   # O_3
 297 1 2  -0.672864  11.514178  17.014410   0.000000   # O_3
 298 1 4   0.202190   5.346925  16.920274  26.613323   # H_
 299 1 3  -0.079721   5.366021  17.293321   1.757923   # C_3
 300 1 3   0.115977   3.883513  17.046416   2.218920   # C_3
 301 1 3  -0.215409   3.906913  16.270197   3.532790   # C_3
 302 1 3  -0.191388   3.105950  16.245184   1.160293   # C_3
 303 1 3  -0.207163   3.159742  18.372389   2.498638   # C_3
 304 1 4   0.020879   3.551617  15.223674   1.009676   # H_
 305 1 4   0.019805   3.136880  16.783642   0.207906   # H_
 306 1 4   0.021400   2.043827  16.101290   1.466908   # H_
 307 1 4   0.058454   4.343435  15.276390   3.362269   # H_
 308 1 4   0.057462   2.895085  16.155620   3.957746   # H_
 309 1 4   0.071017   4.526059  16.815648   4.270816   # H_
 310 1 4   0.075631   3.691207  18.924564   3.289919   # H_
 311 1 4   0.050931   2.125053  18.163407   2.850438   # H_
 312 1 4   0.061190   3.080937  19.021120   1.601657   # H_
 313 1 4   0.055153   5.838584  18.041837   2.430860   # H_
 314 1 4   0.032600   5.912548  16.332327   1.867927   # H_
 315 1 2  -0.610143  24.962178  23.329590   0.000000   # O_3
 316 1 3   0.479654  23.743789  23.743789   0.000000   # C_3
 317 1 2  -0.611301  23.329590  24.962178   0.000000   # O_3
 318 1 3  -0.161207  22.686776  22.686776   0.000000   # C_3
 319 1 3   0.075870  23.004149  21.360803   0.000000   # C_3
 320 1 3   0.079507  21.360803  23.004149   0.000000   # C_3
 321 1 3  -0.141539  22.068168  20.387168   0.000000   # C_3
 322 1 4   0.015179  23.899786  21.116050   0.000000   # H_
 323 1 3  -0.139199  20.387168  22.068168   0.000000   # C_3
 324 1 4   0.018886  21.116050  23.899786   0.000000   # H_
 325 1 3   0.050593  20.691093  20.691093   0.000000   # C_3
 326 1 3   0.010664  19.652907  19.652907   0.000000   # C_3
 327 1 4   0.049346  22.337128  19.496910   0.000000   # H_
 328 1 3  -0.078993  19.956832  18.275832   0.000000   # C_3
 329 1 4   0.057640  19.496910  22.337128   0.000000   # H_
 330 1 3  -0.128002  18.275832  19.956832   0.000000   # C_3
 331 1 3   0.039693  18.983197  17.339851   0.000000   # C_3
 332 1 5   0.010531  21.372368  17.729305  26.544200   # N_3
 333 1 3   0.065752  17.339851  18.983197   0.000000   # C_3
 334 1 4   0.045581  18.006872  20.847090   0.000000   # H_
 335 1 3  -0.175926  17.657224  17.657224   0.000000   # C_3
 336 1 3   0.483897  16.600211  16.600211   0.000000   # C_3
 337 1 4   0.005594  19.227950  16.444214   0.000000   # H_
 338 1 4  -0.004069  16.444214  19.227950   0.000000   # H_
 339 1 2  -0.676788  17.014410  15.381822   0.000000   # O_3
 340 1 2  -0.676806  15.381822  17.014410   0.000000   # O_3
 341 1 4  -0.029309  21.549075  16.920274   0.282677   # H_
 342 1 3  -0.105927  21.529979  17.293321  25.138077   # C_3
 343 1 3   0.196256  23.012487  17.046416  24.677080   # C_3
 344 1 3  -0.263977  22.989087  16.270197  23.363210   # C_3
 345 1 3  -0.263049  23.790050  16.245184  25.735707   # C_3
 346 1 3  -0.265128  23.736258  18.372389  24.397362   # C_3
 347 1 4   0.122071  23.344383  15.223674  25.886324   # H_
 348 1 4   0.151848  23.759120  16.783642  26.688094   # H_
 349 1 4   0.130385  24.852173  16.101290  25.429092   # H_
 350 1 4   0.095660  22.552565  15.276390  23.533731   # H_
 351 1 4   0.110152  24.000915  16.155620  22.938254   # H_
 352 1 4   0.094658  22.370210  16.815648  22.625184   # H_
 353 1 4   0.117815  23.204793  18.924564  23.606081   # H_
 354 1 4   0.126695  24.770947  18.163407  24.045562   # H_
 355 1 4   0.146508  23.815063  19.021120  25.294343   # H_
 356 1 4   0.088357  21.057416  18.041837  24.465408   # H_
 357 1 4   0.086768  20.983452  16.332327  25.028073   # H_
 358 1 2  -0.617219  24.962178   3.566410   0.000000   # O_3
 359 1 3   0.502842  23.743789   3.152211   0.000000   # C_3
 360 1 2  -0.680847  23.329590   1.933822   0.000000   # O_3
 361 1 3  -0.217883  22.686776   4.209224   0.000000   # C_3
 362 1 3   0.136256  23.004149   5.535197   0.000000   # C_3
 363 1 3   0.134816  21.360803   3.891851   0.000000   # C_3
 364 1 3  -0.200823  22.068168   6.508832   0.000000   # C_3
 365 1 4   0.002548  23.899786   5.779950   0.000000   # H_
 366 1 3  -0.202141  20.387168   4.827832   0.000000   # C_3
 367 1 4  -0.028180  21.116050   2.996214   0.000000   # H_
 368 1 3   0.113099  20.691093   6.204907   0.000000   # C_3
 369 1 3  -0.045225  19.652907   7.243093   0.000000   # C_3
 370 1 4   0.101811  22.337128   7.399090   0.000000   # H_
 371 1 3   0.024321  19.956832   8.620168   0.000000   # C_3
 372 1 4   0.073203  19.496910   4.558872   0.000000   # H_
 373 1 3  -0.076781  18.275832   6.939168   0.000000   # C_3
 374 1 3  -0.027453  18.983197   9.556149   0.000000   # C_3
 375 1 5  -0.213531  21.372368   9.166695   0.351800   # N_3
 376 1 3   0.020243  17.339851   7.912803   0.000000   # C_3
 377 1 4   0.028786  18.006872   6.048910   0.000000   # H_
 378 1 3  -0.131151  17.657224   9.238776   0.000000   # C_3
 379 1 3   0.469448  16.600211  10.295789   0.000000   # C_3
 380 1 4   0.029761  19.227950  10.451786   0.000000   # H_
 381 1 4   0.013660  16.444214   7.668050   0.000000   # H_
 382 1 2  -0.672262  17.014410  11.514178   0.000000   # O_3
 383 1 2  -0.672839  15.381822   9.881590   0.000000   # O_3
 384 1 4   0.208413  21.549075   9.975726  26.613323   # H_
 385 1 3  -0.087896  21.529979   9.602679   1.757923   # C_3
 386 1 3   0.141802  23.012487   9.849584   2.218920   # C_3
 387 1 3  -0.235316  22.989087  10.625803   3.532790   # C_3
 388 1 3  -0.216218  23.790050  10.650816   1.160293   # C_3
 389 1 3  -0.230047  23.736258   8.523611   2.498638   # C_3
 390 1 4   0.045629  23.344383  11.672326   1.009676   # H_
 391 1 4   0.051778  23.759120  10.112358   0.207906   # H_
 392 1 4   0.074558  24.852173  10.794710   1.466908   # H_
 393 1 4   0.073738  22.552565  11.619610   3.362269   # H_
 394 1 4   0.093860  24.000915  10.740380   3.957746   # H_
 395 1 4   0.083767  22.370210  10.080352   4.270816   # H_
 396 1 4   0.094476  23.204793   7.971436   3.289919   # H_
 397 1 4   0.099586  24.770947   8.732862   2.850438   # H_
 398 1 4   0.087454  23.815063   7.874880   1.601657   # H_
 399 1 4   0.057188  21.057416   8.854163   2.430860   # H_
 400 1 4   0.035765  20.983452  10.563673   1.867927   # H_
 401 1 2  -0.685025   0.000000   1.933822   3.566410   # O_3
 402 1 3   0.515340   0.000000   3.152211   3.152211   # C_3
 403 1 2  -0.686102   0.000000   3.566410   1.933822   # O_3
 404 1 3  -0.247347   0.000000   4.209224   4.209224   # C_3
 405 1 3   0.152079   0.000000   3.891851   5.535197   # C_3
 406 1 3   0.147966   0.000000   5.535197   3.891851   # C_3
 407 1 3  -0.223674   0.000000   4.827832   6.508832   # C_3
 408 1 4  -0.036181   0.000000   2.996214   5.779950   # H_
 409 1 3  -0.217248   0.000000   6.508832   4.827832   # C_3
 410 1 4  -0.035723   0.000000   5.779950   2.996214   # H_
 411 1 3   0.116858   0.000000   6.204907   6.204907   # C_3
 412 1 3  -0.048789   0.000000   7.243093   7.243093   # C_3
 413 1 4   0.091474   0.000000   4.558872   7.399090   # H_
 414 1 3   0.012422   0.000000   6.939168   8.620168   # C_3
 415 1 4   0.073292   0.000000   7.399090   4.558872   # H_
 416 1 3  -0.076130   0.000000   8.620168   6.939168   # C_3
 417 1 3  -0.021561   0.000000   7.912803   9.556149   # C_3
 418 1 5  -0.121682   0.757929   5.681242   9.063145   # N_3
 419 1 3   0.019205   0.000000   9.556149   7.912803   # C_3
 420 1 4   0.026077   0.000000   8.889128   6.048910   # H_
 421 1 3  -0.132406   0.000000   9.238776   9.238776   # C_3
 422 1 3   0.469318   0.000000  10.295789  10.295789   # C_3
 423 1 4   0.035055   0.000000   7.668050  10.451786   # H_
 424 1 4   0.015935   0.000000  10.451786   7.668050   # H_
 425 1 2  -0.668573   0.000000   9.881590  11.514178   # O_3
 426 1 2  -0.667758   0.000000  11.514178   9.881590   # O_3
 427 1 4   0.077566   1.717848   6.006146   9.351739   # H_
 428 1 3  -0.274057   0.200375   4.862797  10.154316   # C_3
 429 1 3   0.260384   0.909354   3.434888  10.212680   # C_3
 430 1 3  -0.473159   0.491390   2.784005  11.535694   # C_3
 431 1 3  -0.264200   2.450764   3.445916  10.173681   # C_3
 432 1 3  -0.449251   0.369820   2.488149   9.104565   # C_3
 433 1 4   0.077805   2.899389   4.123157  10.936452   # H_
 434 1 4   0.083933   2.795839   3.731551   9.162660   # H_
 435 1 4   0.065925   2.885941   2.461791  10.401490   # H_
 436 1 4   0.098836   1.020434   3.207079  12.391525   # H_
 437 1 4   0.062109   0.757929   1.689607  11.488626   # H_
 438 1 4   0.203406  26.352432   2.849093  11.743063   # H_
 439 1 4   0.107471   0.823824   2.798798   8.163743   # H_
 440 1 4   0.197625  26.187559   2.592774   8.925976   # H_
 441 1 4   0.064650   0.676703   1.436515   9.318926   # H_
 442 1 4   0.169591  26.006549   4.755482  10.000471   # H_
 443 1 4   0.051089   0.369820   5.359028  11.163992   # H_
 444 1 2  -0.675315   0.000000   1.933822  23.329590   # O_3
 445 1 3   0.495610   0.000000   3.152211  23.743789   # C_3
 446 1 2  -0.607083   0.000000   3.566410  24.962178   # O_3
 447 1 3  -0.195698   0.000000   4.209224  22.686776   # C_3
 448 1 3   0.109334   0.000000   3.891851  21.360803   # C_3
 449 1 3   0.109036   0.000000   5.535197  23.004149   # C_3
 450 1 3  -0.173610   0.000000   4.827832  20.387168   # C_3
 451 1 4  -0.021481   0.000000   2.996214  21.116050   # H_
 452 1 3  -0.164984   0.000000   6.508832  22.068168   # C_3
 453 1 4   0.016635   0.000000   5.779950  23.899786   # H_
 454 1 3   0.076920   0.000000   6.204907  20.691093   # C_3
 455 1 3  -0.004253   0.000000   7.243093  19.652907   # C_3
 456 1 4   0.061346   0.000000   4.558872  19.496910   # H_
 457 1 3  -0.055875   0.000000   6.939168  18.275832   # C_3
 458 1 4   0.077802   0.000000   7.399090  22.337128   # H_
 459 1 3  -0.111383   0.000000   8.620168  19.956832   # C_3
 460 1 3   0.021026   0.000000   7.912803  17.339851   # C_3
 461 1 5  -0.088161  26.138071   5.681242  17.832855   # N_3
 462 1 3   0.055406   0.000000   9.556149  18.983197   # C_3
 463 1 4   0.053477   0.000000   8.889128  20.847090   # H_
 464 1 3  -0.160935   0.000000   9.238776  17.657224   # C_3
 465 1 3   0.479772   0.000000  10.295789  16.600211   # C_3
 466 1 4   0.006990   0.000000   7.668050  16.444214   # H_
 467 1 4   0.010613   0.000000  10.451786  19.227950   # H_
 468 1 2  -0.671515   0.000000   9.881590  15.381822   # O_3
 469 1 2  -0.668034   0.000000  11.514178  17.014410   # O_3
 470 1 4   0.103097  25.178152   6.006146  17.544261   # H_
 471 1 3   0.110368  26.695625   4.862797  16.741684   # C_3
 472 1 3   0.009804  25.986646   3.434888  16.683320   # C_3
 473 1 3   0.020639  26.404610   2.784005  15.360306   # C_3
 474 1 3  -0.169537  24.445236   3.445916  16.722319   # C_3
 475 1 3   0.007012  26.526180   2.488149  17.791435   # C_3
 476 1 4   0.059072  23.996611   4.123157  15.959548   # H_
 477 1 4   0.075087  24.100430   3.731551  17.733340   # H_
 478 1 4   0.046342  24.010059   2.461791  16.494510   # H_
 479 1 4   0.028577  25.875566   3.207079  14.504475   # H_
 480 1 4   0.016644  26.138071   1.689607  15.407374   # H_
 481 1 4  -0.075005   0.543568   2.849093  15.152937   # H_
 482 1 4   0.065782  26.072176   2.798798  18.732257   # H_
 483 1 4  -0.058374   0.708441   2.592774  17.970024   # H_
 484 1 4   0.025978  26.219297   1.436515  17.577074   # H_
 485 1 4  -0.058994   0.889451   4.755482  16.895529   # H_
 486 1 4   0.046055  26.526180   5.359028  15.732008   # H_
 487 1 2  -0.608200   0.000000  24.962178  23.329590   # O_3
 488 1 3   0.486195   0.000000  23.743789  23.743789   # C_3