 (written by mofun)

840 atoms
0 bonds
0 angles
0 dihedrals
0 impropers

5 atom types
   0.000000  20.700400 xlo xhi
   0.000000  20.700400 ylo yhi
   0.000000  20.700400 zlo zhi

Masses

 1 91.2240   # Zr3+4
 2 15.9994   # O_3
 3 12.0107   # C_3
 4 14.0067   # N_3
 5 1.0079   # H_

Pair Coeffs

 1   0.069000   2.783168 # Zr3+4
 2   0.060000   3.118146 # O_3
 3   0.105000   3.430851 # C_3
 4   0.069000   3.260689 # N_3
 5   0.044000   2.571134 # H_

Atoms

 1 1 1   3.173770   2.481771   0.000000   0.000000   # Zr3+4
 2 1 1   3.190210   2.481771  10.350200  10.350200   # Zr3+4
 3 1 1   3.179960  12.831971   0.000000  10.350200   # Zr3+4
 4 1 1   3.183510  12.831971  10.350200   0.000000   # Zr3+4
 5 1 1   3.172580  18.218629   0.000000   0.000000   # Zr3+4
 6 1 1   3.191030  18.218629  10.350200  10.350200   # Zr3+4
 7 1 1   3.181640   7.868429   0.000000  10.350200   # Zr3+4
 8 1 1   3.181840   7.868429  10.350200   0.000000   # Zr3+4
 9 1 1   3.173660   0.000000   2.481771   0.000000   # Zr3+4
 10 1 1   3.147420   0.000000  12.831971  10.350200   # Zr3+4
 11 1 1   3.190270  10.350200   2.481771  10.350200   # Zr3+4
 12 1 1   3.183380  10.350200  12.831971   0.000000   # Zr3+4
 13 1 1   3.172570   0.000000  18.218629   0.000000   # Zr3+4
 14 1 1   3.214030   0.000000   7.868429  10.350200   # Zr3+4
 15 1 1   3.190850  10.350200  18.218629  10.350200   # Zr3+4
 16 1 1   3.181800  10.350200   7.868429   0.000000   # Zr3+4
 17 1 1   3.204240   0.000000   0.000000   2.481771   # Zr3+4
 18 1 1   3.179600   0.000000  10.350200  12.831971   # Zr3+4
 19 1 1   3.147420  10.350200   0.000000  12.831971   # Zr3+4
 20 1 1   3.190850  10.350200  10.350200   2.481771   # Zr3+4
 21 1 1   3.139570   0.000000   0.000000  18.218629   # Zr3+4
 22 1 1   3.181630   0.000000  10.350200   7.868429   # Zr3+4
 23 1 1   3.214250  10.350200   0.000000   7.868429   # Zr3+4
 24 1 1   3.191360  10.350200  10.350200  18.218629   # Zr3+4
 25 1 2  -1.307980   1.161292   9.188908   9.188908   # O_3
 26 1 2  -1.236230  11.511492  19.539108   9.188908   # O_3
 27 1 2  -1.348110  11.511492   9.188908  19.539108   # O_3
 28 1 2  -1.306880   9.188908   1.161292   9.188908   # O_3
 29 1 2  -1.348760   9.188908  11.511492  19.539108   # O_3
 30 1 2  -1.203110  19.539108  19.539108   1.161292   # O_3
 31 1 2  -1.235130  19.539108   9.188908  11.511492   # O_3
 32 1 2  -1.345570   1.161292   1.161292   1.161292   # O_3
 33 1 2  -1.410680  11.511492  11.511492   1.161292   # O_3
 34 1 2  -1.357780  19.539108   1.161292   1.161292   # O_3
 35 1 2  -1.458790  19.539108  11.511492  11.511492   # O_3
 36 1 2  -1.530560   9.188908   1.161292  11.511492   # O_3
 37 1 2  -1.415410   9.188908  11.511492   1.161292   # O_3
 38 1 2  -1.358830   1.161292  19.539108   1.161292   # O_3
 39 1 2  -1.400940   1.161292   9.188908  11.511492   # O_3
 40 1 2  -1.458930  11.511492  19.539108  11.511492   # O_3
 41 1 2  -1.415540  11.511492   9.188908   1.161292   # O_3
 42 1 2  -1.353420  19.539108  19.539108  19.539108   # O_3
 43 1 2  -1.320300  19.539108   9.188908   9.188908   # O_3
 44 1 2  -1.321210   9.188908  19.539108   9.188908   # O_3
 45 1 2  -1.352680   9.188908   9.188908  19.539108   # O_3
 46 1 2  -1.494450   1.161292   1.161292  19.539108   # O_3
 47 1 2  -1.530540   1.161292  11.511492   9.188908   # O_3
 48 1 2  -1.400560  11.511492   1.161292   9.188908   # O_3
 49 1 3   0.549267   3.179581   0.000000  17.520819   # C_3
 50 1 2  -0.755347   3.528590   0.000000  18.727859   # O_3
 51 1 2  -0.801205   1.972541   0.000000  17.171810   # O_3
 52 1 3  -0.180187   4.243582   0.000000  16.456818   # C_3
 53 1 3   0.045990   3.816533   0.000000  15.162836   # C_3
 54 1 4  -0.095632   2.737835  19.497293  14.902218   # N_3
 55 1 5   0.004892   4.580585   0.000000  13.051809   # H_
 56 1 3  -0.010132   4.812636   0.000000  14.167768   # C_3
 57 1 3  -0.159051   6.106618   0.000000  14.593782   # C_3
 58 1 3   0.002432   6.532632   0.000000  15.887764   # C_3
 59 1 3   0.020895   5.537564   0.000000  16.883867   # C_3
 60 1 5   0.016912   5.769615   0.000000  17.999826   # H_
 61 1 5   0.016024   7.648591   0.000000  16.119815   # H_
 62 1 2  -0.789291   8.377452   0.000000  13.878790   # O_3
 63 1 3   0.537151   7.170619   0.000000  13.529781   # C_3
 64 1 2  -0.784441   6.821610   0.000000  12.322741   # O_3
 65 1 5   0.098154   1.894087  19.388823  15.501495   # H_
 66 1 3  -0.043623   2.991829  18.092357  14.387813   # C_3
 67 1 5   0.043988   2.825605  17.447539  15.256609   # H_
 68 1 5   0.053472   4.061625  17.973536  14.135268   # H_
 69 1 3  -0.037250   2.143940  17.427253  13.102525   # C_3
 70 1 5   0.037490   2.831401  17.339897  12.254016   # H_
 71 1 3  -0.230642   0.724514  18.038329  12.403059   # C_3
 72 1 5   0.034412   2.074180  16.367185  13.424416   # H_
 73 1 5   0.066801   0.843541  18.890150  11.919290   # H_
 74 1 5   0.040958   0.018837  18.334551  13.104802   # H_
 75 1 3   0.231492  20.398588  17.530548  11.286893   # C_3
 76 1 3  -0.469715   0.160428  16.529269  10.275472   # C_3
 77 1 5   0.006177  19.977542  18.390235  10.672919   # H_
 78 1 5   0.008206  19.508885  17.055474  11.751203   # H_
 79 1 5   0.116033   0.845197  17.030633   9.570623   # H_
 80 1 5   0.184747  20.000726  16.124163   9.685303   # H_
 81 1 5   0.087169   0.607971  15.684900  10.783045   # H_
 82 1 3   0.559951   3.179581  10.350200   7.170619   # C_3
 83 1 2  -0.665894   3.528590  10.350200   8.377659   # O_3
 84 1 2  -0.675916   1.972541  10.350200   6.821610   # O_3
 85 1 3  -0.182194   4.243582  10.350200   6.106618   # C_3
 86 1 3   0.099201   3.816533  10.350200   4.812636   # C_3
 87 1 4  -0.142058   2.727071   9.161169   4.577893   # N_3
 88 1 5   0.035777   4.580585  10.350200   2.701609   # H_
 89 1 3  -0.017765   4.812636  10.350200   3.817568   # C_3
 90 1 3  -0.132574   6.106618  10.350200   4.243582   # C_3
 91 1 3   0.001198   6.532632  10.350200   5.537564   # C_3
 92 1 3   0.035676   5.537564  10.350200   6.533667   # C_3
 93 1 5   0.027410   5.769615  10.350200   7.649626   # H_
 94 1 5   0.034374   7.648591  10.350200   5.769615   # H_
 95 1 2  -0.743015   8.377452  10.350200   3.528590   # O_3
 96 1 3   0.531852   7.170619  10.350200   3.179581   # C_3
 97 1 2  -0.751551   6.821610  10.350200   1.972541   # O_3
 98 1 5   0.092401   2.424017   8.690235   5.452899   # H_
 99 1 3  -0.047153   3.085602   7.957855   3.738699   # C_3
 100 1 5   0.038013   3.405423   7.151574   4.449137   # H_
 101 1 5   0.039918   3.998282   8.182040   3.172336   # H_
 102 1 3  -0.002494   2.057827   7.302480   2.629986   # C_3
 103 1 5   0.032312   2.761226   7.160682   1.840680   # H_
 104 1 3  -0.401323   0.568019   7.780038   1.945631   # C_3
 105 1 5   0.031672   1.993863   6.284641   2.990173   # H_
 106 1 5   0.071411   0.524548   8.702241   1.456687   # H_
 107 1 5   0.194195  20.555083   7.910658   2.711959   # H_
 108 1 3   0.404174  20.337936   7.150953   0.826567   # C_3
 109 1 3  -0.848047   0.160221   6.002909   0.020907   # C_3
 110 1 5  -0.071740  19.990790   7.868636   0.051958   # H_
 111 1 5  -0.049326  19.422978   6.757646   1.326068   # H_
 112 1 5   0.264869   0.817045   6.337427  19.905298   # H_
 113 1 5   0.337494  20.044197   5.442963  20.274800   # H_
 114 1 5   0.189908   0.719960   5.372996   0.708782   # H_
 115 1 3   0.544811  13.529781   0.000000   7.170619   # C_3
 116 1 2  -0.699886  13.878790   0.000000   8.377659   # O_3
 117 1 2  -0.699248  12.322741   0.000000   6.821610   # O_3
 118 1 3  -0.178820  14.593782   0.000000   6.106618   # C_3
 119 1 3   0.038284  14.166733   0.000000   4.812636   # C_3
 120 1 4  -0.102401  13.088449  19.494602   4.585967   # N_3
 121 1 5  -0.002884  14.930785   0.000000   2.701609   # H_
 122 1 3  -0.015311  15.162629   0.000000   3.817568   # C_3
 123 1 3  -0.145017  16.456611   0.000000   4.243582   # C_3
 124 1 3   0.003697  16.882832   0.000000   5.537564   # C_3
 125 1 3   0.020360  15.887764   0.000000   6.533667   # C_3
 126 1 5   0.013723  16.119815   0.000000   7.649626   # H_
 127 1 5   0.024987  17.998791   0.000000   5.769615   # H_
 128 1 2  -0.651453  18.727652   0.000000   3.528590   # O_3
 129 1 3   0.537707  17.520612   0.000000   3.179581   # C_3
 130 1 2  -0.705336  17.171603   0.000000   1.972541   # O_3
 131 1 5   0.115207  12.791398  18.994687   5.450415   # H_
 132 1 3  -0.035731  13.432904  18.332481   3.655277   # C_3
 133 1 5   0.046298  13.808202  17.504879   4.313135   # H_
 134 1 5   0.062461  14.278308  18.611730   3.043373   # H_
 135 1 3  -0.071817  12.395400  17.617489   2.599763   # C_3
 136 1 5   0.051443  13.078720  17.475278   1.807145   # H_
 137 1 3  -0.121242  10.894207  18.124442   1.919962   # C_3
 138 1 5   0.048273  12.363935  16.607310   2.977753   # H_
 139 1 5   0.053858  10.849494  19.062998   1.424395   # H_
 140 1 5   0.053043  10.195775  18.255269   2.696227   # H_
 141 1 3   0.067305   9.954408  17.469275   0.825532   # C_3
 142 1 3  -0.454648  10.533192  16.329511   0.030223   # C_3
 143 1 5  -0.012793   9.563999  18.188406   0.060859   # H_
 144 1 5   0.007030   9.031999  17.063961   1.327931   # H_
 145 1 5   0.185043  11.166831  16.709570  19.891842   # H_
 146 1 5   0.171952   9.719666  15.726508  20.307920   # H_
 147 1 5   0.108848  11.126051  15.704358   0.698224   # H_
 148 1 3   0.550619  13.529781  10.350200  17.520819   # C_3
 149 1 2  -0.714445  13.878790  10.350200  18.727859   # O_3
 150 1 2  -0.740477  12.322741  10.350200  17.171810   # O_3
 151 1 3  -0.187516  14.593782  10.350200  16.456818   # C_3
 152 1 3   0.115147  14.166733  10.350200  15.162836   # C_3
 153 1 4  -0.149512  12.813134   9.889616  14.734131   # N_3
 154 1 5   0.053395  14.930785  10.350200  13.051809   # H_
 155 1 3  -0.032039  15.162629  10.350200  14.167768   # C_3
 156 1 3  -0.116615  16.456611  10.350200  14.593782   # C_3
 157 1 3   0.002535  16.882832  10.350200  15.887764   # C_3
 158 1 3   0.045057  15.887764  10.350200  16.883867   # C_3
 159 1 5   0.036995  16.119815  10.350200  17.999826   # H_
 160 1 5   0.046000  17.998791  10.350200  16.119815   # H_
 161 1 2  -0.623733  18.727652  10.350200  13.878790   # O_3
 162 1 3   0.528502  17.520612  10.350200  13.529781   # C_3
 163 1 2  -0.654718  17.171603  10.350200  12.322741   # O_3
 164 1 5   0.076157  11.989465  10.489721  14.924160   # H_
 165 1 3  -0.030513  12.774424   8.401671  14.823142   # C_3
 166 1 5   0.051667  12.122982   8.123044  15.672480   # H_
 167 1 5   0.045654  13.736164   8.014781  15.187262   # H_
 168 1 3  -0.078993  12.686861   7.476984  13.484448   # C_3
 169 1 5   0.051195  13.688347   7.609881  13.089691   # H_
 170 1 3  -0.093127  11.782254   8.060736  12.336403   # C_3
 171 1 5   0.045920  12.583359   6.439687  13.798473   # H_
 172 1 5   0.050640  12.139750   9.062842  12.360002   # H_
 173 1 5   0.054783  10.933330   8.022647  12.885999   # H_
 174 1 3  -0.032812  11.430761   7.819369  10.807265   # C_3
 175 1 3  -0.191314  10.656359   6.506550  10.439833   # C_3
 176 1 5   0.039211  12.287136   7.926390  10.251873   # H_
 177 1 5   0.026811  10.691343   8.601637  10.530707   # H_
 178 1 5   0.056935  11.220238   5.638996  10.242972   # H_
 179 1 5   0.058216  10.009471   6.727216   9.537088   # H_
 180 1 5   0.070549  10.047353   6.211362  11.186703   # H_
 181 1 3   0.548769  17.520819   0.000000  17.520819   # C_3
 182 1 2  -0.747484  17.171810   0.000000  18.727859   # O_3
 183 1 2  -0.749662  18.727859   0.000000  17.171810   # O_3
 184 1 3  -0.198438  16.456818   0.000000  16.456818   # C_3
 185 1 3   0.109649  16.883867   0.000000  15.162836   # C_3
 186 1 4  -0.219673  18.279488   0.300156  14.825833   # N_3
 187 1 5   0.025408  16.119815   0.000000  13.051809   # H_
 188 1 3  -0.039248  15.887971   0.000000  14.167768   # C_3
 189 1 3  -0.135665  14.593989   0.000000  14.593782   # C_3
 190 1 3  -0.020497  14.167768   0.000000  15.887764   # C_3
 191 1 3   0.031271  15.162836   0.000000  16.883867   # C_3
 192 1 5  -0.003600  14.930785   0.000000  17.999826   # H_
 193 1 5   0.021954  13.051809   0.000000  16.119815   # H_
 194 1 2  -0.790918  12.322948   0.000000  13.878790   # O_3
 195 1 3   0.529147  13.529988   0.000000  13.529781   # C_3
 196 1 2  -0.776208  13.878997   0.000000  12.322741   # O_3
 197 1 5   0.106655  18.746903   1.065864  15.370047   # H_
 198 1 3   0.248130  18.979990  20.006937  14.125332   # C_3
 199 1 5   0.016301  18.407831  19.043747  14.017069   # H_
 200 1 5   0.033432  19.892463  19.824980  14.705771   # H_
 201 1 3  -0.410192  19.329206   0.015111  12.847496   # C_3
 202 1 5   0.210860  19.978163  20.179578  12.195434   # H_
 203 1 3   0.108163  19.993067   1.433917  13.176426   # C_3
 204 1 5   0.094139  18.338691   0.027532  12.425622   # H_
 205 1 5   0.028724  20.548666   1.022807  13.970493   # H_
 206 1 5   0.026524  19.296085   2.031537  13.691866   # H_
 207 1 3  -0.263915   0.096878   2.480943  12.127536   # C_3
 208 1 3  -0.169671   1.243887   3.636853  12.342613   # C_3
 209 1 5   0.155102  20.102572   3.083532  11.583530   # H_
 210 1 5   0.041234   0.247991   1.758085  11.400952   # H_
 211 1 5   0.065188   1.751254   3.802249  13.280135   # H_
 212 1 5   0.051956   0.935658   4.604183  11.988637   # H_
 213 1 5   0.085081   1.977923   3.479116  11.802747   # H_
 214 1 3   0.547756  17.520819  10.350200   7.170619   # C_3
 215 1 2  -0.743001  17.171810  10.350200   8.377659   # O_3
 216 1 2  -0.701954  18.727859  10.350200   6.821610   # O_3
 217 1 3  -0.186875  16.456818  10.350200   6.106618   # C_3
 218 1 3   0.124529  16.883867  10.350200   4.812636   # C_3
 219 1 4  -0.150217  18.285698  10.603987   4.501716   # N_3
 220 1 5   0.044289  16.119815  10.350200   2.701609   # H_
 221 1 3  -0.030305  15.887971  10.350200   3.817568   # C_3
 222 1 3  -0.120107  14.593989  10.350200   4.243582   # C_3
 223 1 3  -0.006495  14.167768  10.350200   5.537564   # C_3
 224 1 3   0.037602  15.162836  10.350200   6.533667   # C_3
 225 1 5   0.028059  14.930785  10.350200   7.649626   # H_
 226 1 5   0.039098  13.051809  10.350200   5.769615   # H_
 227 1 2  -0.660815  12.322948  10.350200   3.528590   # O_3
 228 1 3   0.538863  13.529988  10.350200   3.179581   # C_3
 229 1 2  -0.665616  13.878997  10.350200   1.972541   # O_3
 230 1 5   0.097252  18.722891  11.501556   4.775375   # H_
 231 1 3  -0.016767  18.911885   9.587597   3.767680   # C_3
 232 1 5   0.045953  18.335793   8.635793   3.747600   # H_
 233 1 5   0.061805  19.872798   9.427997   4.248136   # H_
 234 1 3  -0.067902  19.062998  10.207781   2.409113   # C_3
 235 1 5   0.025402  19.263378   9.370243   1.704885   # H_
 236 1 3  -0.145271  19.993688  11.502798   2.505369   # C_3
 237 1 5   0.045320  18.077038  10.467571   2.131520   # H_
 238 1 5   0.081365  20.376232  10.879716   1.691016   # H_
 239 1 5   0.100586  20.427155  11.357274   3.476425   # H_
 240 1 3   0.263048  20.639748  12.965489   1.951427   # C_3
 241 1 3  -0.360996   1.222566  14.020795   2.016633   # C_3
 242 1 5  -0.033092  20.091187  13.393987   1.150735   # H_
 243 1 5  -0.124771   0.627222  12.493519   1.581925   # H_
 244 1 5   0.106128   1.804868  14.132784   2.938836   # H_
 245 1 5   0.086783   0.849130  14.998682   1.672385   # H_
 246 1 5   0.119874   1.961777  13.892452   1.407420   # H_
 247 1 3   0.559101   7.170619   0.000000   7.170619   # C_3
 248 1 2  -0.705296   6.821610   0.000000   8.377659   # O_3
 249 1 2  -0.686183   8.377659   0.000000   6.821610   # O_3
 250 1 3  -0.203275   6.106618   0.000000   6.106618   # C_3
 251 1 3   0.106103   6.533667   0.000000   4.812636   # C_3
 252 1 4  -0.187903   7.936947   0.203899   4.495713   # N_3
 253 1 5   0.025677   5.769615   0.000000   2.701609   # H_
 254 1 3  -0.041384   5.537564   0.000000   3.817568   # C_3
 255 1 3  -0.132570   4.243582   0.000000   4.243582   # C_3
 256 1 3  -0.021531   3.817568   0.000000   5.537564   # C_3
 257 1 3   0.030826   4.812636   0.000000   6.533667   # C_3
 258 1 5  -0.006313   4.580585   0.000000   7.649626   # H_
 259 1 5   0.022208   2.701609   0.000000   5.769615   # H_
 260 1 2  -0.689955   1.972748   0.000000   3.528590   # O_3
 261 1 3   0.537827   3.179581   0.000000   3.179581   # C_3
 262 1 2  -0.702794   3.528590   0.000000   1.972541   # O_3
 263 1 5   0.084351   8.333981   1.136038   4.755710   # H_
 264 1 3   0.009199   8.463359  19.894326   3.636025   # C_3
 265 1 5   0.051376   7.829512  18.979162   3.585723   # H_
 266 1 5   0.048948   9.435449  19.666415   4.041132   # H_
 267 1 3   0.128303   8.652767  20.562949   2.328588   # C_3
 268 1 5  -0.001895   8.874054  19.737003   1.610491   # H_
 269 1 3  -0.141555   9.622581   1.160050   2.530003   # C_3
 270 1 5  -0.062538   7.663495   0.101639   2.078113   # H_
 271 1 5  -0.004197  10.038659   0.498052   1.788929   # H_
 272 1 5   0.033386   9.984838   1.003348   3.533351   # H_
 273 1 3  -0.038342  10.291618   2.603075   1.916029   # C_3
 274 1 3  -0.201477  11.577734   3.637474   2.026155   # C_3
 275 1 5   0.018632   9.715526   3.120171   1.140799   # H_
 276 1 5   0.031917  10.920496   2.107508   1.474075   # H_
 277 1 5   0.066975  12.157345   3.741183   2.959950   # H_
 278 1 5   0.071820  11.277992   4.642893   1.680044   # H_
 279 1 5   0.064966  12.332263   3.496712   1.402659   # H_
 280 1 3   0.555807   7.170619  10.350200  17.520819   # C_3
 281 1 2  -0.633550   6.821610  10.350200  18.727859   # O_3
 282 1 2  -0.665206   8.377659  10.350200  17.171810   # O_3
 283 1 3  -0.183883   6.106618  10.350200  16.456818   # C_3
 284 1 3   0.113729   6.533667  10.350200  15.162836   # C_3
 285 1 4  -0.157381   7.726010   9.512248  14.797267   # N_3
 286 1 5   0.039264   5.769615  10.350200  13.051809   # H_
 287 1 3  -0.023989   5.537564  10.350200  14.167768   # C_3
 288 1 3  -0.129094   4.243582  10.350200  14.593782   # C_3
 289 1 3  -0.006821   3.817568  10.350200  15.887764   # C_3
 290 1 3   0.039710   4.812636  10.350200  16.883867   # C_3
 291 1 5   0.033476   4.580585  10.350200  17.999826   # H_
 292 1 5   0.044865   2.701609  10.350200  16.119815   # H_
 293 1 2  -0.752918   1.972748  10.350200  13.878790   # O_3
 294 1 3   0.531020   3.179581  10.350200  13.529781   # C_3
 295 1 2  -0.748455   3.528590  10.350200  12.322741   # O_3
 296 1 5   0.096656   8.489855   9.310212  15.435460   # H_
 297 1 3  -0.010814   7.333531   8.234826  14.278929   # C_3
 298 1 5   0.041743   6.343017   7.884368  14.592540   # H_
 299 1 5   0.034715   8.016851   7.422956  14.529611   # H_
 300 1 3  -0.072648   7.229615   8.194046  12.795745   # C_3
 301 1 5   0.042452   7.103549   7.142673  12.634282   # H_
 302 1 3  -0.085926   8.467292   8.647799  12.174526   # C_3
 303 1 5   0.038571   6.372825   8.709072  12.275958   # H_
 304 1 5   0.034467   7.971724   8.942780  11.235142   # H_
 305 1 5   0.048549   8.976935   7.835308  11.971455   # H_
 306 1 3  -0.029165   9.257012   9.855460  12.777943   # C_3
 307 1 3  -0.177923   9.869537  10.664225  11.623068   # C_3
 308 1 5   0.025054   9.998293   9.716561  13.611548   # H_
 309 1 5   0.036725   8.668914  10.598812  13.203336   # H_
 310 1 5   0.050307  11.017374  10.602745  11.583737   # H_
 311 1 5   0.064128   9.607263  11.657016  11.806887   # H_
 312 1 5   0.057942   9.452010  10.475230  10.664846   # H_
 313 1 3   0.546346  17.520819   3.179581   0.000000   # C_3
 314 1 2  -0.744669  18.727859   3.528590   0.000000   # O_3
 315 1 2  -0.786376  17.171810   1.972541   0.000000   # O_3
 316 1 3  -0.175113  16.456818   4.243582   0.000000   # C_3
 317 1 3   0.046171  15.162836   3.816533   0.000000   # C_3
 318 1 4  -0.104415  14.927058   2.732453  19.516130   # N_3
 319 1 5   0.006569  13.051809   4.580585   0.000000   # H_
 320 1 3  -0.013222  14.167768   4.812636   0.000000   # C_3
 321 1 3  -0.149557  14.593782   6.106618   0.000000   # C_3
 322 1 3   0.004002  15.887764   6.532632   0.000000   # C_3
 323 1 3   0.022771  16.883867   5.537564   0.000000   # C_3
 324 1 5   0.021165  17.999826   5.769615   0.000000   # H_
 325 1 5   0.018645  16.119815   7.648591   0.000000   # H_
 326 1 2  -0.693646  13.878790   8.377452   0.000000   # O_3
 327 1 3   0.542023  13.529781   7.170619   0.000000   # C_3
 328 1 2  -0.696636  12.322741   6.821610   0.000000   # O_3
 329 1 5   0.094417  15.429664   1.826189  19.445749   # H_
 330 1 3  -0.050020  14.280171   3.024949  18.181161   # C_3
 331 1 5   0.047489  15.087694   2.932626  17.424562   # H_
 332 1 5   0.062323  13.964904   4.080049  18.202897   # H_
 333 1 3  -0.017378  12.998816   2.090947  17.594926   # C_3
 334 1 5   0.038657  12.240561   2.830366  17.645849   # H_
 335 1 3  -0.365330  12.340336   0.580646  18.124028   # C_3
 336 1 5   0.029387  13.204578   2.066935  16.516228   # H_
 337 1 5   0.083428  11.883272   0.528274  19.050164   # H_
 338 1 5   0.185277  13.082032  20.540386  18.220492   # H_
 339 1 3   0.290879  11.166003  20.423636  17.472173   # C_3
 340 1 3  -0.544466  10.448113   0.247991  16.256852   # C_3
 341 1 5   0.000393  10.353719  20.189514  18.207865   # H_
 342 1 5  -0.020668  11.585393  19.447819  17.172845   # H_
 343 1 5   0.136661   9.553028   0.827602  16.531753   # H_
 344 1 5   0.185648  10.123531  20.123066  15.651365   # H_
 345 1 5   0.129811  11.157930   0.837331  15.682623   # H_
 346 1 3   0.544970  17.520819  13.529781  10.350200   # C_3
 347 1 2  -0.715995  18.727859  13.878790  10.350200   # O_3
 348 1 2  -0.736324  17.171810  12.322741  10.350200   # O_3
 349 1 3  -0.178914  16.456818  14.593782  10.350200   # C_3
 350 1 3   0.101557  15.162836  14.166733  10.350200   # C_3
 351 1 4  -0.143848  14.865992  13.218447   9.119354   # N_3
 352 1 5   0.041247  13.051809  14.930785  10.350200   # H_
 353 1 3  -0.024968  14.167768  15.162629  10.350200   # C_3
 354 1 3  -0.119547  14.593782  16.456611  10.350200   # C_3
 355 1 3   0.007103  15.887764  16.882832  10.350200   # C_3
 356 1 3   0.042338  16.883867  15.887764  10.350200   # C_3
 357 1 5   0.039843  17.999826  16.119815  10.350200   # H_
 358 1 5   0.050655  16.119815  17.998791  10.350200   # H_
 359 1 2  -0.620506  13.878790  18.727652  10.350200   # O_3
 360 1 3   0.532331  13.529781  17.520612  10.350200   # C_3
 361 1 2  -0.660085  12.322741  17.171603  10.350200   # O_3
 362 1 5   0.082996  15.756109  12.902352   8.681334   # H_
 363 1 3  -0.033601  14.085380  13.804062   7.930737   # C_3
 364 1 5   0.036530  14.774496  14.079998   7.109138   # H_
 365 1 5   0.042282  13.642185  14.743239   8.139811   # H_
 366 1 3  -0.077106  13.010822  12.884757   7.316556   # C_3
 367 1 5   0.047590  12.525191  13.600370   6.682296   # H_
 368 1 3  -0.090422  11.978286  12.141406   8.203155   # C_3
 369 1 5   0.050744  13.503906  12.221309   6.676086   # H_
 370 1 5   0.055308  11.047596  12.512564   7.924527   # H_
 371 1 5   0.048780  12.236834  12.385256   9.232585   # H_
 372 1 3  -0.038264  11.639421  10.567968   7.849799   # C_3
 373 1 3  -0.178985  10.864812  10.418097   6.520419   # C_3
 374 1 5   0.024479  11.076991  10.050665   8.643866   # H_
 375 1 5   0.032917  12.585222  10.129327   7.761408   # H_
 376 1 5   0.056734   9.796878  10.314802   6.790973   # H_
 377 1 5   0.059427  11.150063   9.582008   5.879742   # H_
 378 1 5   0.063080  10.986116  11.300141   5.934184   # H_
 379 1 3   0.563735   7.170619   3.179581  10.350200   # C_3
 380 1 2  -0.666624   8.377659   3.528590  10.350200   # O_3
 381 1 2  -0.676243   6.821610   1.972541  10.350200   # O_3
 382 1 3  -0.180403   6.106618   4.243582  10.350200   # C_3
 383 1 3   0.101568   4.812636   3.816533  10.350200   # C_3
 384 1 4  -0.137505   4.534837   2.689810   9.231343   # N_3
 385 1 5   0.035747   2.701609   4.580585  10.350200   # H_
 386 1 3  -0.017931   3.817568   4.812636  10.350200   # C_3
 387 1 3  -0.128678   4.243582   6.106618  10.350200   # C_3
 388 1 3   0.000077   5.537564   6.532632  10.350200   # C_3
 389 1 3   0.034220   6.533667   5.537564  10.350200   # C_3
 390 1 5   0.026041   7.649626   5.769615  10.350200   # H_
 391 1 5   0.032995   5.769615   7.648591  10.350200   # H_
 392 1 2  -0.661688   3.528590   8.377452  10.350200   # O_3
 393 1 3   0.538198   3.179581   7.170619  10.350200   # C_3
 394 1 2  -0.661435   1.972541   6.821610  10.350200   # O_3
 395 1 5   0.076814   4.981965   1.752910   9.275642   # H_
 396 1 3  -0.048411   4.029126   2.848996   7.808398   # C_3
 397 1 5   0.047267   4.874116   2.631849   7.135221   # H_
 398 1 5   0.044293   3.801835   3.933283   7.679227   # H_
 399 1 3  -0.027510   2.679874   2.007939   7.200841   # C_3
 400 1 5   0.038659   1.849995   2.751911   7.150746   # H_
 401 1 3  -0.317581   1.969643   0.543178   7.707380   # C_3
 402 1 5   0.038791   2.960985   2.007939   6.134150   # H_
 403 1 5   0.061144   1.502435   0.599277   8.649248   # H_
 404 1 5   0.170761   2.691259  20.476215   7.841312   # H_
 405 1 3   0.144145   0.819529  20.335038   7.107689   # C_3
 406 1 3  -0.263930  20.684875   0.165396   5.991524   # C_3
 407 1 5  -0.021573   0.112817  20.033226   7.891406   # H_
 408 1 5   0.002351   1.288807  19.382406   6.722041   # H_
 409 1 5   0.104495  19.861827   0.791790   6.385245   # H_
 410 1 5   0.181473  20.242714  20.049579   5.442135   # H_
 411 1 5   0.019018   0.611904   0.753288   5.349397   # H_
 412 1 3   0.549395   7.170619  13.529781   0.000000   # C_3
 413 1 2  -0.700208   8.377659  13.878790   0.000000   # O_3
 414 1 2  -0.703830   6.821610  12.322741   0.000000   # O_3
 415 1 3  -0.181586   6.106618  14.593782   0.000000   # C_3
 416 1 3   0.045092   4.812636  14.166733   0.000000   # C_3
 417 1 4  -0.108244   4.585139  13.089898  19.493360   # N_3
 418 1 5   0.001789   2.701609  14.930785   0.000000   # H_
 419 1 3  -0.015652   3.817568  15.162629   0.000000   # C_3
 420 1 3  -0.147392   4.243582  16.456611   0.000000   # C_3
 421 1 3   0.003344   5.537564  16.882832   0.000000   # C_3
 422 1 3   0.021728   6.533667  15.887764   0.000000   # C_3
 423 1 5   0.016117   7.649626  16.119815   0.000000   # H_
 424 1 5   0.024294   5.769615  17.998791   0.000000   # H_
 425 1 2  -0.736897   3.528590  18.727652   0.000000   # O_3
 426 1 3   0.532331   3.179581  17.520612   0.000000   # C_3
 427 1 2  -0.777791   1.972541  17.171603   0.000000   # O_3
 428 1 5   0.112713   5.483743  12.915808  18.993859   # H_
 429 1 3  -0.031993   3.700818  13.459193  18.296670   # C_3
 430 1 5   0.037970   4.382896  13.759349  17.452714   # H_
 431 1 5   0.052999   3.125139  14.362766  18.526237   # H_
 432 1 3  -0.073183   2.598935  12.410304  17.629496   # C_3
 433 1 5   0.046918   1.811285  13.129850  17.516264   # H_
 434 1 3  -0.089927   1.913338  10.908904  18.128168   # C_3
 435 1 5   0.041731   2.956224  12.356897  16.588266   # H_
 436 1 5   0.037253   1.445302  10.844733  19.075833   # H_
 437 1 5   0.045089   2.674492  10.180664  18.199171   # H_
 438 1 3  -0.034740   0.777093  10.012576  17.484800   # C_3
 439 1 3  -0.481117   0.096257  10.541058  16.262027   # C_3
 440 1 5   0.104885  20.643888   9.764793  18.195031   # H_
 441 1 5   0.020906   1.214078   9.029928  17.219835   # H_
 442 1 5   0.199289  19.915027  11.138264  16.536929   # H_
 443 1 5   0.187562  20.439368   9.719459  15.660060   # H_
 444 1 5   0.114237   0.803176  11.163726  15.696492   # H_
 445 1 3   0.551121  17.520819  17.520819   0.000000   # C_3
 446 1 2  -0.657265  18.727859  17.171810   0.000000   # O_3
 447 1 2  -0.652896  17.171810  18.727859   0.000000   # O_3
 448 1 3  -0.188646  16.456818  16.456818   0.000000   # C_3
 449 1 3   0.109535  15.162836  16.883867   0.000000   # C_3
 450 1 4  -0.181479  14.832251  18.288803   0.219217   # N_3
 451 1 5   0.028709  13.051809  16.119815   0.000000   # H_
 452 1 3  -0.038771  14.167768  15.887971   0.000000   # C_3
 453 1 3  -0.133859  14.593782  14.593989   0.000000   # C_3
 454 1 3  -0.018356  15.887764  14.167768   0.000000   # C_3
 455 1 3   0.030782  16.883867  15.162836   0.000000   # C_3
 456 1 5   0.004790  17.999826  14.930785   0.000000   # H_
 457 1 5   0.024092  16.119815  13.051809   0.000000   # H_
 458 1 2  -0.769410  13.878790  12.322948   0.000000   # O_3
 459 1 3   0.527128  13.529781  13.529988   0.000000   # C_3
 460 1 2  -0.770475  12.322741  13.878997   0.000000   # O_3
 461 1 5   0.100911  15.215829  18.772365   1.061103   # H_
 462 1 3  -0.007994  14.049154  18.899051  19.910266   # C_3
 463 1 5   0.063569  14.027419  18.329376  18.959496   # H_
 464 1 5   0.081593  14.549276  19.868451  19.761430   # H_
 465 1 3   0.127264  12.714393  19.046231  20.542456   # C_3
 466 1 5   0.012565  12.013891  19.256754  19.695810   # H_
 467 1 3  -0.210061  12.847289  19.989962   1.163776   # C_3
 468 1 5  -0.053309  12.411753  18.079108   0.089426   # H_
 469 1 5   0.068453  12.104145  20.416598   0.505090   # H_
 470 1 5   0.093436  13.823106  20.385754   1.016390   # H_
 471 1 3   0.258284  12.254016  20.616770   2.615289   # C_3
 472 1 3  -0.369561  12.333091   1.188203   3.684257   # C_3
 473 1 5  -0.003595  11.454566  20.058067   3.077321   # H_
 474 1 5  -0.104158  11.877683   0.610869   2.124275   # H_
 475 1 5   0.105855  13.249912   1.768849   3.805562   # H_
 476 1 5   0.099047  11.978286   0.871901   4.675806   # H_
 477 1 5   0.137156  11.726156   1.928656   3.531902   # H_
 478 1 3   0.553302  17.520819   7.170619  10.350200   # C_3
 479 1 2  -0.621259  18.727859   6.821610  10.350200   # O_3
 480 1 2  -0.659666  17.171810   8.377659  10.350200   # O_3
 481 1 3  -0.185421  16.456818   6.106618  10.350200   # C_3
 482 1 3   0.120582  15.162836   6.533667  10.350200   # C_3
 483 1 4  -0.156368  14.780500   7.891406  10.774144   # N_3
 484 1 5   0.050017  13.051809   5.769615  10.350200   # H_
 485 1 3  -0.026948  14.167768   5.537564  10.350200   # C_3
 486 1 3  -0.124422  14.593782   4.243582  10.350200   # C_3
 487 1 3  -0.006192  15.887764   3.817568  10.350200   # C_3
 488 1 3   0.042851  16.883867   4.812636  10.350200   # C_3