 (written by mofun)

776 atoms
0 bonds
0 angles
0 dihedrals
0 impropers

5 atom types
   0.000000  26.896000 xlo xhi
   0.000000  26.896000 ylo yhi
   0.000000  26.896000 zlo zhi

Masses

 1 91.2240   # Zr3+4
 2 15.9994   # O_3
 3 12.0107   # C_3
 4 1.0079   # H_
 5 14.0067   # N_3

Pair Coeffs

 1   0.069000   2.783168 # Zr3+4
 2   0.060000   3.118146 # O_3
 3   0.105000   3.430851 # C_3
 4   0.044000   2.571134 # H_
 5   0.069000   3.260689 # N_3

Atoms

 1 1 1   3.185300   2.475508   0.000000   0.000000   # Zr3+4
 2 1 1   3.184500  24.420492   0.000000   0.000000   # Zr3+4
 3 1 1   3.185800   0.000000   2.475508   0.000000   # Zr3+4
 4 1 1   3.185000   0.000000  24.420492   0.000000   # Zr3+4
 5 1 1   3.185610   0.000000   0.000000   2.475508   # Zr3+4
 6 1 1   3.184790   0.000000   0.000000  24.420492   # Zr3+4
 7 1 1   3.215000   2.475508  13.448000  13.448000   # Zr3+4
 8 1 1   3.213760  24.420492  13.448000  13.448000   # Zr3+4
 9 1 1   3.200310   0.000000  15.923508  13.448000   # Zr3+4
 10 1 1   3.200240   0.000000  10.972492  13.448000   # Zr3+4
 11 1 1   3.200290   0.000000  13.448000  15.923508   # Zr3+4
 12 1 1   3.200220   0.000000  13.448000  10.972492   # Zr3+4
 13 1 1   3.199870  15.923508   0.000000  13.448000   # Zr3+4
 14 1 1   3.199800  10.972492   0.000000  13.448000   # Zr3+4
 15 1 1   3.215000  13.448000   2.475508  13.448000   # Zr3+4
 16 1 1   3.213730  13.448000  24.420492  13.448000   # Zr3+4
 17 1 1   3.199820  13.448000   0.000000  15.923508   # Zr3+4
 18 1 1   3.199750  13.448000   0.000000  10.972492   # Zr3+4
 19 1 1   3.199990  15.923508  13.448000   0.000000   # Zr3+4
 20 1 1   3.199920  10.972492  13.448000   0.000000   # Zr3+4
 21 1 1   3.199970  13.448000  15.923508   0.000000   # Zr3+4
 22 1 1   3.199960  13.448000  10.972492   0.000000   # Zr3+4
 23 1 1   3.214980  13.448000  13.448000   2.475508   # Zr3+4
 24 1 1   3.213720  13.448000  13.448000  24.420492   # Zr3+4
 25 1 2  -1.336500   1.221078   1.221078   1.221078   # O_3
 26 1 2  -1.128650  25.674922  25.674922   1.221078   # O_3
 27 1 2  -1.129360  25.674922   1.221078  25.674922   # O_3
 28 1 2  -1.126680   1.221078  25.674922  25.674922   # O_3
 29 1 2  -1.230170   1.221078   1.221078  25.674922   # O_3
 30 1 2  -1.029530  25.674922  25.674922  25.674922   # O_3
 31 1 2  -1.229370   1.221078  25.674922   1.221078   # O_3
 32 1 2  -1.232130  25.674922   1.221078   1.221078   # O_3
 33 1 2  -1.275140   1.221078  14.669078  14.669078   # O_3
 34 1 2  -1.171420  25.674922  12.226922  14.669078   # O_3
 35 1 2  -1.171420  25.674922  14.669078  12.226922   # O_3
 36 1 2  -1.275530   1.221078  12.226922  12.226922   # O_3
 37 1 2  -1.275330   1.221078  14.669078  12.226922   # O_3
 38 1 2  -1.171350  25.674922  12.226922  12.226922   # O_3
 39 1 2  -1.275340   1.221078  12.226922  14.669078   # O_3
 40 1 2  -1.171500  25.674922  14.669078  14.669078   # O_3
 41 1 2  -1.275930  14.669078   1.221078  14.669078   # O_3
 42 1 2  -1.169420  12.226922  25.674922  14.669078   # O_3
 43 1 2  -1.276300  12.226922   1.221078  12.226922   # O_3
 44 1 2  -1.169420  14.669078  25.674922  12.226922   # O_3
 45 1 2  -1.276120  14.669078   1.221078  12.226922   # O_3
 46 1 2  -1.169330  12.226922  25.674922  12.226922   # O_3
 47 1 2  -1.169510  14.669078  25.674922  14.669078   # O_3
 48 1 2  -1.276110  12.226922   1.221078  14.669078   # O_3
 49 1 2  -1.275690  14.669078  14.669078   1.221078   # O_3
 50 1 2  -1.276160  12.226922  12.226922   1.221078   # O_3
 51 1 2  -1.169940  12.226922  14.669078  25.674922   # O_3
 52 1 2  -1.170040  14.669078  12.226922  25.674922   # O_3
 53 1 2  -1.170020  14.669078  14.669078  25.674922   # O_3
 54 1 2  -1.169960  12.226922  12.226922  25.674922   # O_3
 55 1 2  -1.275970  14.669078  12.226922   1.221078   # O_3
 56 1 2  -1.275870  12.226922  14.669078   1.221078   # O_3
 57 1 2  -0.682370   3.566410   0.000000   1.933822   # O_3
 58 1 3   0.487330   3.152211   0.000000   3.152211   # C_3
 59 1 2  -0.681459   1.933822   0.000000   3.566410   # O_3
 60 1 3  -0.158445   4.209224   0.000000   4.209224   # C_3
 61 1 3   0.071190   5.535197   0.000000   3.891851   # C_3
 62 1 3   0.008214   3.891851   0.000000   5.535197   # C_3
 63 1 3  -0.129790   6.508832   0.000000   4.827832   # C_3
 64 1 4   0.001687   5.779950   0.000000   2.996214   # H_
 65 1 3   0.013994   4.827832   0.000000   6.508832   # C_3
 66 1 4   0.038348   2.996214   0.000000   5.779950   # H_
 67 1 3   0.022300   6.204907   0.000000   6.204907   # C_3
 68 1 3   0.014763   7.243093   0.000000   7.243093   # C_3
 69 1 4   0.081631   7.399090   0.000000   4.558872   # H_
 70 1 3   0.020746   8.620168   0.000000   6.939168   # C_3
 71 1 5  -0.083167   4.287491   0.000269   7.924100   # N_3
 72 1 3  -0.117454   6.939168   0.000000   8.620168   # C_3
 73 1 3  -0.002478   9.556149   0.000000   7.912803   # C_3
 74 1 5  -0.084734   9.142757   0.028779   5.521211   # N_3
 75 1 3   0.058298   7.912803   0.000000   9.556149   # C_3
 76 1 4   0.081586   6.048910   0.000000   8.889128   # H_
 77 1 3  -0.145292   9.238776   0.000000   9.238776   # C_3
 78 1 3   0.476929  10.295789   0.000000  10.295789   # C_3
 79 1 4   0.046448  10.451786   0.000000   7.668050   # H_
 80 1 4   0.016517   7.668050   0.000000  10.451786   # H_
 81 1 2  -0.671298  11.514178   0.000000   9.881590   # O_3
 82 1 2  -0.670412   9.881590   0.000000  11.514178   # O_3
 83 1 5  -0.120851  10.328333   0.006993   5.197921   # N_3
 84 1 5   0.074028  11.463613  26.886048   4.832404   # N_3
 85 1 5  -0.120800   3.074482   0.000000   8.075524   # N_3
 86 1 5   0.058229   1.893209  26.896000   8.212963   # N_3
 87 1 2  -0.672813  23.329590   0.000000   1.933822   # O_3
 88 1 3   0.473152  23.743789   0.000000   3.152211   # C_3
 89 1 2  -0.600773  24.962178   0.000000   3.566410   # O_3
 90 1 3  -0.120916  22.686776   0.000000   4.209224   # C_3
 91 1 3   0.051694  21.360803   0.000000   3.891851   # C_3
 92 1 3  -0.011308  23.004149   0.000000   5.535197   # C_3
 93 1 3  -0.107408  20.387168   0.000000   4.827832   # C_3
 94 1 4   0.011758  21.116050   0.000000   2.996214   # H_
 95 1 3   0.041708  22.068168   0.000000   6.508832   # C_3
 96 1 4   0.077589  23.899786   0.000000   5.779950   # H_
 97 1 3   0.013234  20.691093   0.000000   6.204907   # C_3
 98 1 3   0.026284  19.652907   0.000000   7.243093   # C_3
 99 1 4   0.076350  19.496910   0.000000   4.558872   # H_
 100 1 3   0.019336  18.275832   0.000000   6.939168   # C_3
 101 1 5  -0.070761  22.608509   0.000269   7.924100   # N_3
 102 1 3  -0.120961  19.956832   0.000000   8.620168   # C_3
 103 1 3   0.001830  17.339851   0.000000   7.912803   # C_3
 104 1 5  -0.082526  17.753512   0.028779   5.521211   # N_3
 105 1 3   0.065982  18.983197   0.000000   9.556149   # C_3
 106 1 4   0.093572  20.847090   0.000000   8.889128   # H_
 107 1 3  -0.146813  17.657224   0.000000   9.238776   # C_3
 108 1 3   0.478469  16.600211   0.000000  10.295789   # C_3
 109 1 4   0.045786  16.444214   0.000000   7.668050   # H_
 110 1 4   0.019574  19.227950   0.000000  10.451786   # H_
 111 1 2  -0.671091  15.381822   0.000000   9.881590   # O_3
 112 1 2  -0.668918  17.014410   0.000000  11.514178   # O_3
 113 1 5  -0.119730  16.567667   0.006993   5.197921   # N_3
 114 1 5   0.074185  15.432387  26.886048   4.832404   # N_3
 115 1 5  -0.099627  23.821518   0.000000   8.075524   # N_3
 116 1 5   0.132874  25.002791  26.896000   8.212963   # N_3
 117 1 2  -0.591266  23.329590   0.000000  24.962178   # O_3
 118 1 3   0.460035  23.743789   0.000000  23.743789   # C_3
 119 1 2  -0.592686  24.962178   0.000000  23.329590   # O_3
 120 1 3  -0.085783  22.686776   0.000000  22.686776   # C_3
 121 1 3   0.035014  21.360803   0.000000  23.004149   # C_3
 122 1 3  -0.025014  23.004149   0.000000  21.360803   # C_3
 123 1 3  -0.079013  20.387168   0.000000  22.068168   # C_3
 124 1 4   0.059186  21.116050   0.000000  23.899786   # H_
 125 1 3   0.055294  22.068168   0.000000  20.387168   # C_3
 126 1 4   0.084952  23.899786   0.000000  21.116050   # H_
 127 1 3   0.008838  20.691093   0.000000  20.691093   # C_3
 128 1 3   0.033800  19.652907   0.000000  19.652907   # C_3
 129 1 4   0.088561  19.496910   0.000000  22.337128   # H_
 130 1 3   0.024350  18.275832   0.000000  19.956832   # C_3
 131 1 5  -0.070492  22.608509   0.000269  18.971900   # N_3
 132 1 3  -0.121744  19.956832   0.000000  18.275832   # C_3
 133 1 3   0.003108  17.339851   0.000000  18.983197   # C_3
 134 1 5  -0.069285  17.753512   0.037385  21.374520   # N_3
 135 1 3   0.068473  18.983197   0.000000  17.339851   # C_3
 136 1 4   0.095499  20.847090   0.000000  18.006872   # H_
 137 1 3  -0.145384  17.657224   0.000000  17.657224   # C_3
 138 1 3   0.478954  16.600211   0.000000  16.600211   # C_3
 139 1 4   0.049199  16.444214   0.000000  19.227950   # H_
 140 1 4   0.019583  19.227950   0.000000  16.444214   # H_
 141 1 2  -0.669362  15.381822   0.000000  17.014410   # O_3
 142 1 2  -0.668474  17.014410   0.000000  15.381822   # O_3
 143 1 5  -0.105298  16.567667   0.009145  21.698079   # N_3
 144 1 5   0.100273  15.432656  26.883090  22.063596   # N_3
 145 1 5  -0.097664  23.821518   0.000000  18.820476   # N_3
 146 1 5   0.132368  25.002791  26.896000  18.683037   # N_3
 147 1 2  -0.599398   3.566410   0.000000  24.962178   # O_3
 148 1 3   0.473795   3.152211   0.000000  23.743789   # C_3
 149 1 2  -0.671957   1.933822   0.000000  23.329590   # O_3
 150 1 3  -0.122313   4.209224   0.000000  22.686776   # C_3
 151 1 3   0.053993   5.535197   0.000000  23.004149   # C_3
 152 1 3  -0.005949   3.891851   0.000000  21.360803   # C_3
 153 1 3  -0.100736   6.508832   0.000000  22.068168   # C_3
 154 1 4   0.049805   5.779950   0.000000  23.899786   # H_
 155 1 3   0.028088   4.827832   0.000000  20.387168   # C_3
 156 1 4   0.046301   2.996214   0.000000  21.116050   # H_
 157 1 3   0.017695   6.204907   0.000000  20.691093   # C_3
 158 1 3   0.022499   7.243093   0.000000  19.652907   # C_3
 159 1 4   0.093834   7.399090   0.000000  22.337128   # H_
 160 1 3   0.025783   8.620168   0.000000  19.956832   # C_3
 161 1 5  -0.082816   4.287491   0.000269  18.971900   # N_3
 162 1 3  -0.118305   6.939168   0.000000  18.275832   # C_3
 163 1 3  -0.001133   9.556149   0.000000  18.983197   # C_3
 164 1 5  -0.071386   9.142488   0.037385  21.374520   # N_3
 165 1 3   0.060904   7.912803   0.000000  17.339851   # C_3
 166 1 4   0.083619   6.048910   0.000000  18.006872   # H_
 167 1 3  -0.143884   9.238776   0.000000  17.657224   # C_3
 168 1 3   0.477444  10.295789   0.000000  16.600211   # C_3
 169 1 4   0.049864  10.451786   0.000000  19.227950   # H_
 170 1 4   0.016521   7.668050   0.000000  16.444214   # H_
 171 1 2  -0.669565  11.514178   0.000000  17.014410   # O_3
 172 1 2  -0.669962   9.881590   0.000000  15.381822   # O_3
 173 1 5  -0.106336  10.328333   0.009145  21.698079   # N_3
 174 1 5   0.100205  11.463344  26.883090  22.063596   # N_3
 175 1 5  -0.118667   3.074482   0.000000  18.820476   # N_3
 176 1 5   0.058372   1.893209  26.896000  18.683037   # N_3
 177 1 2  -0.677886   1.933822   3.566410   0.000000   # O_3
 178 1 3   0.479904   3.152211   3.152211   0.000000   # C_3
 179 1 2  -0.679676   3.566410   1.933822   0.000000   # O_3
 180 1 3  -0.138368   4.209224   4.209224   0.000000   # C_3
 181 1 3   0.038578   3.891851   5.535197   0.000000   # C_3
 182 1 3  -0.011528   5.535197   3.891851   0.000000   # C_3
 183 1 3  -0.090615   4.827832   6.508832   0.000000   # C_3
 184 1 4   0.017057   2.996214   5.779950   0.000000   # H_
 185 1 3   0.033384   6.508832   4.827832   0.000000   # C_3
 186 1 4   0.045211   5.779950   2.996214   0.000000   # H_
 187 1 3  -0.018860   6.204907   6.204907   0.000000   # C_3
 188 1 3   0.067230   7.243093   7.243093   0.000000   # C_3
 189 1 4   0.048707   4.558872   7.399090   0.000000   # H_
 190 1 3  -0.092224   6.939168   8.620168   0.000000   # C_3
 191 1 5  -0.086715   7.924100   4.287491   0.000269   # N_3
 192 1 3  -0.163363   8.620168   6.939168   0.000000   # C_3
 193 1 3   0.062382   7.912803   9.556149   0.000000   # C_3
 194 1 5   0.036117   5.520942   9.126082  26.894924   # N_3
 195 1 3   0.101479   9.556149   7.912803   0.000000   # C_3
 196 1 4   0.097202   8.889128   6.048910   0.000000   # H_
 197 1 3  -0.185921   9.238776   9.238776   0.000000   # C_3
 198 1 3   0.490868  10.295789  10.295789   0.000000   # C_3
 199 1 4   0.014913   7.668050  10.451786   0.000000   # H_
 200 1 4   0.001743  10.451786   7.668050   0.000000   # H_
 201 1 2  -0.673557   9.881590  11.514178   0.000000   # O_3
 202 1 2  -0.673225  11.514178   9.881590   0.000000   # O_3
 203 1 5   0.078454   5.179094  10.303858  26.895731   # N_3
 204 1 5  -0.154414   4.797440  11.434028   0.000269   # N_3
 205 1 5  -0.120132   8.075524   3.074482   0.000000   # N_3
 206 1 5   0.056676   8.212963   1.893209  26.895731   # N_3
 207 1 2  -0.669056   1.933822  23.329590   0.000000   # O_3
 208 1 3   0.471505   3.152211  23.743789   0.000000   # C_3
 209 1 2  -0.598165   3.566410  24.962178   0.000000   # O_3
 210 1 3  -0.116741   4.209224  22.686776   0.000000   # C_3
 211 1 3   0.047662   3.891851  21.360803   0.000000   # C_3
 212 1 3  -0.013500   5.535197  23.004149   0.000000   # C_3
 213 1 3  -0.103961   4.827832  20.387168   0.000000   # C_3
 214 1 4   0.019146   2.996214  21.116050   0.000000   # H_
 215 1 3   0.043972   6.508832  22.068168   0.000000   # C_3
 216 1 4   0.079677   5.779950  23.899786   0.000000   # H_
 217 1 3   0.012311   6.204907  20.691093   0.000000   # C_3
 218 1 3   0.026661   7.243093  19.652907   0.000000   # C_3
 219 1 4   0.078511   4.558872  19.496910   0.000000   # H_
 220 1 3   0.020830   6.939168  18.275832   0.000000   # C_3
 221 1 5  -0.070507   7.924100  22.608509   0.000269   # N_3
 222 1 3  -0.120444   8.620168  19.956832   0.000000   # C_3
 223 1 3   0.000632   7.912803  17.339851   0.000000   # C_3
 224 1 5  -0.081439   5.520942  17.769918   0.002959   # N_3
 225 1 3   0.065509   9.556149  18.983197   0.000000   # C_3
 226 1 4   0.093600   8.889128  20.847090   0.000000   # H_
 227 1 3  -0.145664   9.238776  17.657224   0.000000   # C_3
 228 1 3   0.478116  10.295789  16.600211   0.000000   # C_3
 229 1 4   0.047355   7.668050  16.444214   0.000000   # H_
 230 1 4   0.019834  10.451786  19.227950   0.000000   # H_
 231 1 2  -0.669888   9.881590  15.381822   0.000000   # O_3
 232 1 2  -0.668471  11.514178  17.014410   0.000000   # O_3
 233 1 5  -0.117441   5.179094  16.592142   0.001076   # N_3
 234 1 5   0.081515   4.797440  15.461972  26.895462   # N_3
 235 1 5  -0.098440   8.075524  23.821518   0.000000   # N_3
 236 1 5   0.133668   8.212963  25.002791  26.895731   # N_3
 237 1 2  -0.589097  24.962178  23.329590   0.000000   # O_3
 238 1 3   0.458651  23.743789  23.743789   0.000000   # C_3
 239 1 2  -0.590293  23.329590  24.962178   0.000000   # O_3
 240 1 3  -0.082321  22.686776  22.686776   0.000000   # C_3
 241 1 3   0.031338  23.004149  21.360803   0.000000   # C_3
 242 1 3  -0.026920  21.360803  23.004149   0.000000   # C_3
 243 1 3  -0.076133  22.068168  20.387168   0.000000   # C_3
 244 1 4   0.065672  23.899786  21.116050   0.000000   # H_
 245 1 3   0.057261  20.387168  22.068168   0.000000   # C_3
 246 1 4   0.086868  21.116050  23.899786   0.000000   # H_
 247 1 3   0.008043  20.691093  20.691093   0.000000   # C_3
 248 1 3   0.033964  19.652907  19.652907   0.000000   # C_3
 249 1 4   0.090529  22.337128  19.496910   0.000000   # H_
 250 1 3   0.025893  19.956832  18.275832   0.000000   # C_3
 251 1 5  -0.070251  18.971900  22.608509   0.000269   # N_3
 252 1 3  -0.121135  18.275832  19.956832   0.000000   # C_3
 253 1 3   0.001800  18.983197  17.339851   0.000000   # C_3
 254 1 5  -0.068665  21.375058  17.769918   0.003228   # N_3
 255 1 3   0.067877  17.339851  18.983197   0.000000   # C_3
 256 1 4   0.095459  18.006872  20.847090   0.000000   # H_
 257 1 3  -0.144167  17.657224  17.657224   0.000000   # C_3
 258 1 3   0.478566  16.600211  16.600211   0.000000   # C_3
 259 1 4   0.050871  19.227950  16.444214   0.000000   # H_
 260 1 4   0.019868  16.444214  19.227950   0.000000   # H_
 261 1 2  -0.668141  17.014410  15.381822   0.000000   # O_3
 262 1 2  -0.668028  15.381822  17.014410   0.000000   # O_3
 263 1 5  -0.103057  21.716906  16.592142   0.001076   # N_3
 264 1 5   0.108192  22.098560  15.461972  26.895462   # N_3
 265 1 5  -0.096533  18.820476  23.821518   0.000000   # N_3
 266 1 5   0.133136  18.683037  25.002791  26.896000   # N_3
 267 1 2  -0.596474  24.962178   3.566410   0.000000   # O_3
 268 1 3   0.466698  23.743789   3.152211   0.000000   # C_3
 269 1 2  -0.670364  23.329590   1.933822   0.000000   # O_3
 270 1 3  -0.103135  22.686776   4.209224   0.000000   # C_3
 271 1 3   0.022090  23.004149   5.535197   0.000000   # C_3
 272 1 3  -0.025190  21.360803   3.891851   0.000000   # C_3
 273 1 3  -0.062566  22.068168   6.508832   0.000000   # C_3
 274 1 4   0.064188  23.899786   5.779950   0.000000   # H_
 275 1 3   0.046971  20.387168   4.827832   0.000000   # C_3
 276 1 4   0.052935  21.116050   2.996214   0.000000   # H_
 277 1 3  -0.022832  20.691093   6.204907   0.000000   # C_3
 278 1 3   0.074097  19.652907   7.243093   0.000000   # C_3
 279 1 4   0.061163  22.337128   7.399090   0.000000   # H_
 280 1 3  -0.085685  19.956832   8.620168   0.000000   # C_3
 281 1 5  -0.086329  18.971900   4.287491   0.000269   # N_3
 282 1 3  -0.163534  18.275832   6.939168   0.000000   # C_3
 283 1 3   0.062789  18.983197   9.556149   0.000000   # C_3
 284 1 5   0.047509  21.375058   9.126082  26.894924   # N_3
 285 1 3   0.103409  17.339851   7.912803   0.000000   # C_3
 286 1 4   0.098966  18.006872   6.048910   0.000000   # H_
 287 1 3  -0.183922  17.657224   9.238776   0.000000   # C_3
 288 1 3   0.491167  16.600211  10.295789   0.000000   # C_3
 289 1 4   0.018849  19.227950  10.451786   0.000000   # H_
 290 1 4   0.001962  16.444214   7.668050   0.000000   # H_
 291 1 2  -0.671764  17.014410  11.514178   0.000000   # O_3
 292 1 2  -0.672736  15.381822   9.881590   0.000000   # O_3
 293 1 5   0.090170  21.716906  10.303858  26.895731   # N_3
 294 1 5  -0.124331  22.098560  11.434028   0.000269   # N_3
 295 1 5  -0.118053  18.820476   3.074482   0.000000   # N_3
 296 1 5   0.056809  18.683037   1.893209  26.896000   # N_3
 297 1 2  -0.682716   0.000000   1.933822   3.566410   # O_3
 298 1 3   0.494183   0.000000   3.152211   3.152211   # C_3
 299 1 2  -0.679905   0.000000   3.566410   1.933822   # O_3
 300 1 3  -0.178384   0.000000   4.209224   4.209224   # C_3
 301 1 3   0.083613   0.000000   3.891851   5.535197   # C_3
 302 1 3   0.050321   0.000000   5.535197   3.891851   # C_3
 303 1 3  -0.137605   0.000000   4.827832   6.508832   # C_3
 304 1 4  -0.003146   0.000000   2.996214   5.779950   # H_
 305 1 3  -0.077230   0.000000   6.508832   4.827832   # C_3
 306 1 4   0.017885   0.000000   5.779950   2.996214   # H_
 307 1 3   0.033767   0.000000   6.204907   6.204907   # C_3
 308 1 3   0.026784   0.000000   7.243093   7.243093   # C_3
 309 1 4   0.063571   0.000000   4.558872   7.399090   # H_
 310 1 3  -0.070840   0.000000   6.939168   8.620168   # C_3
 311 1 5   0.030194  26.896000   7.924100   4.287222   # N_3
 312 1 3  -0.126329   0.000000   8.620168   6.939168   # C_3
 313 1 3   0.042165   0.000000   7.912803   9.556149   # C_3
 314 1 5   0.029989  26.896000   5.521211   9.142757   # N_3
 315 1 3   0.071682   0.000000   9.556149   7.912803   # C_3
 316 1 4   0.063933   0.000000   8.889128   6.048910   # H_
 317 1 3  -0.166833   0.000000   9.238776   9.238776   # C_3
 318 1 3   0.484205   0.000000  10.295789  10.295789   # C_3
 319 1 4   0.023387   0.000000   7.668050  10.451786   # H_
 320 1 4   0.011414   0.000000  10.451786   7.668050   # H_
 321 1 2  -0.670372   0.000000   9.881590  11.514178   # O_3
 322 1 2  -0.670775   0.000000  11.514178   9.881590   # O_3
 323 1 5   0.076185  26.896000   5.197921  10.328602   # N_3
 324 1 5  -0.147250   0.000000   4.832404  11.463882   # N_3
 325 1 5   0.076323  26.896000   8.075524   3.074213   # N_3
 326 1 5  -0.164916   0.000000   8.213232   1.893209   # N_3
 327 1 2  -0.672980   0.000000   1.933822  23.329590   # O_3
 328 1 3   0.479583   0.000000   3.152211  23.743789   # C_3
 329 1 2  -0.597687   0.000000   3.566410  24.962178   # O_3
 330 1 3  -0.139691   0.000000   4.209224  22.686776   # C_3
 331 1 3   0.063335   0.000000   3.891851  21.360803   # C_3
 332 1 3   0.029666   0.000000   5.535197  23.004149   # C_3
 333 1 3  -0.114373   0.000000   4.827832  20.387168   # C_3
 334 1 4   0.007261   0.000000   2.996214  21.116050   # H_
 335 1 3  -0.047406   0.000000   6.508832  22.068168   # C_3
 336 1 4   0.058266   0.000000   5.779950  23.899786   # H_
 337 1 3   0.024052   0.000000   6.204907  20.691093   # C_3
 338 1 3   0.038829   0.000000   7.243093  19.652907   # C_3
 339 1 4   0.058198   0.000000   4.558872  19.496910   # H_
 340 1 3  -0.071773   0.000000   6.939168  18.275832   # C_3
 341 1 5   0.041437  26.896000   7.924100  22.608778   # N_3
 342 1 3  -0.130175   0.000000   8.620168  19.956832   # C_3
 343 1 3   0.046416   0.000000   7.912803  17.339851   # C_3
 344 1 5   0.031335  26.896000   5.521211  17.753243   # N_3
 345 1 3   0.079784   0.000000   9.556149  18.983197   # C_3
 346 1 4   0.076799   0.000000   8.889128  20.847090   # H_
 347 1 3  -0.168401   0.000000   9.238776  17.657224   # C_3
 348 1 3   0.485795   0.000000  10.295789  16.600211   # C_3
 349 1 4   0.022841   0.000000   7.668050  16.444214   # H_
 350 1 4   0.014537   0.000000  10.451786  19.227950   # H_
 351 1 2  -0.670160   0.000000   9.881590  15.381822   # O_3
 352 1 2  -0.669283   0.000000  11.514178  17.014410   # O_3
 353 1 5   0.076604  26.896000   5.197921  16.567398   # N_3
 354 1 5  -0.146213   0.000000   4.832404  15.432118   # N_3
 355 1 5   0.094285  26.896000   8.075524  23.821787   # N_3
 356 1 5  -0.084052   0.000000   8.213232  25.002791   # N_3
 357 1 2  -0.590736   0.000000  24.962178  23.329590   # O_3
 358 1 3   0.466232   0.000000  23.743789  23.743789   # C_3
 359 1 2  -0.588969   0.000000  23.329590  24.962178   # O_3
 360 1 3  -0.103527   0.000000  22.686776  22.686776   # C_3
 361 1 3   0.046280   0.000000  23.004149  21.360803   # C_3
 362 1 3   0.015312   0.000000  21.360803  23.004149   # C_3
 363 1 3  -0.085370   0.000000  22.068168  20.387168   # C_3
 364 1 4   0.055215   0.000000  23.899786  21.116050   # H_
 365 1 3  -0.032008   0.000000  20.387168  22.068168   # C_3
 366 1 4   0.066767   0.000000  21.116050  23.899786   # H_
 367 1 3   0.019614   0.000000  20.691093  20.691093   # C_3
 368 1 3   0.046455   0.000000  19.652907  19.652907   # C_3
 369 1 4   0.070758   0.000000  22.337128  19.496910   # H_
 370 1 3  -0.065312   0.000000  19.956832  18.275832   # C_3
 371 1 5   0.041243  26.896000  18.971900  22.608778   # N_3
 372 1 3  -0.130663   0.000000  18.275832  19.956832   # C_3
 373 1 3   0.047135   0.000000  18.983197  17.339851   # C_3
 374 1 5   0.043094  26.896000  21.374789  17.753243   # N_3
 375 1 3   0.082258   0.000000  17.339851  18.983197   # C_3
 376 1 4   0.079260   0.000000  18.006872  20.847090   # H_
 377 1 3  -0.166578   0.000000  17.657224  17.657224   # C_3
 378 1 3   0.486230   0.000000  16.600211  16.600211   # C_3
 379 1 4   0.026634   0.000000  19.227950  16.444214   # H_
 380 1 4   0.014745   0.000000  16.444214  19.227950   # H_
 381 1 2  -0.668395   0.000000  17.014410  15.381822   # O_3
 382 1 2  -0.668766   0.000000  15.381822  17.014410   # O_3
 383 1 5   0.088350  26.896000  21.698079  16.567398   # N_3
 384 1 5  -0.116653   0.000000  22.063596  15.432118   # N_3
 385 1 5   0.095415  26.896000  18.820207  23.821787   # N_3
 386 1 5  -0.080440   0.000000  18.682768  25.002791   # N_3
 387 1 2  -0.599017   0.000000  24.962178   3.566410   # O_3
 388 1 3   0.480403   0.000000  23.743789   3.152211   # C_3
 389 1 2  -0.669739   0.000000  23.329590   1.933822   # O_3
 390 1 3  -0.141189   0.000000  22.686776   4.209224   # C_3
 391 1 3   0.066020   0.000000  23.004149   5.535197   # C_3
 392 1 3   0.035493   0.000000  21.360803   3.891851   # C_3
 393 1 3  -0.107911   0.000000  22.068168   6.508832   # C_3
 394 1 4   0.045518   0.000000  23.899786   5.779950   # H_
 395 1 3  -0.061303   0.000000  20.387168   4.827832   # C_3
 396 1 4   0.026992   0.000000  21.116050   2.996214   # H_
 397 1 3   0.029106   0.000000  20.691093   6.204907   # C_3
 398 1 3   0.034644   0.000000  19.652907   7.243093   # C_3
 399 1 4   0.076114   0.000000  22.337128   7.399090   # H_
 400 1 3  -0.064373   0.000000  19.956832   8.620168   # C_3
 401 1 5   0.030085  26.896000  18.971900   4.287222   # N_3
 402 1 3  -0.126887   0.000000  18.275832   6.939168   # C_3
 403 1 3   0.042961   0.000000  18.983197   9.556149   # C_3
 404 1 5   0.041873  26.896000  21.374789   9.142757   # N_3
 405 1 3   0.074270   0.000000  17.339851   7.912803   # C_3
 406 1 4   0.066504   0.000000  18.006872   6.048910   # H_
 407 1 3  -0.165032   0.000000  17.657224   9.238776   # C_3
 408 1 3   0.484660   0.000000  16.600211  10.295789   # C_3
 409 1 4   0.027180   0.000000  19.227950  10.451786   # H_
 410 1 4   0.011623   0.000000  16.444214   7.668050   # H_
 411 1 2  -0.668595   0.000000  17.014410  11.514178   # O_3
 412 1 2  -0.670245   0.000000  15.381822   9.881590   # O_3
 413 1 5   0.088026  26.896000  21.698079  10.328602   # N_3
 414 1 5  -0.117599   0.000000  22.063596  11.463882   # N_3
 415 1 5   0.077631  26.896000  18.820207   3.074213   # N_3
 416 1 5  -0.160636   0.000000  18.682768   1.893209   # N_3
 417 1 2  -0.617518   3.566410  13.448000  15.381822   # O_3
 418 1 3   0.480637   3.152211  13.448000  16.600211   # C_3
 419 1 2  -0.626787   1.933822  13.448000  17.014410   # O_3
 420 1 3  -0.113198   4.209224  13.448000  17.657224   # C_3
 421 1 3   0.058361   5.535197  13.448000  17.339851   # C_3
 422 1 3  -0.009018   3.891851  13.448000  18.983197   # C_3
 423 1 3  -0.099419   6.508832  13.448000  18.275832   # C_3
 424 1 4   0.044030   5.779950  13.448000  16.444214   # H_
 425 1 3   0.049990   4.827832  13.448000  19.956832   # C_3
 426 1 4   0.074250   2.996214  13.448000  19.227950   # H_
 427 1 3   0.031881   6.204907  13.448000  19.652907   # C_3
 428 1 3   0.017385   7.243093  13.448000  20.691093   # C_3
 429 1 4   0.100876   7.399090  13.448000  18.006872   # H_
 430 1 3   0.063909   8.620168  13.448000  20.387168   # C_3
 431 1 5  -0.066150   4.287222  13.448000  21.372100   # N_3
 432 1 3  -0.070576   6.939168  13.448000  22.068168   # C_3
 433 1 3  -0.027180   9.556149  13.448000  21.360803   # C_3
 434 1 5  -0.073405   9.126082  13.448000  18.968942   # N_3
 435 1 3   0.037776   7.912803  13.448000  23.004149   # C_3
 436 1 4   0.101542   6.048910  13.448000  22.337128   # H_
 437 1 3  -0.078075   9.238776  13.448000  22.686776   # C_3
 438 1 3   0.466468  10.295789  13.448000  23.743789   # C_3
 439 1 4   0.084475  10.451786  13.448000  21.116050   # H_
 440 1 4   0.080693   7.668050  13.448000  23.899786   # H_
 441 1 2  -0.609110  11.514178  13.448000  23.329590   # O_3
 442 1 2  -0.546745   9.881590  13.448000  24.962178   # O_3
 443 1 5  -0.025582  10.303858  13.448000  18.627094   # N_3
 444 1 5  -0.038637  11.434028  13.448000  18.245440   # N_3
 445 1 5  -0.023922   3.074213  13.448000  21.523524   # N_3
 446 1 5  -0.054308   1.892940  13.448000  21.661232   # N_3
 447 1 2  -0.608683  23.329590  13.448000  15.381822   # O_3
 448 1 3   0.466560  23.743789  13.448000  16.600211   # C_3
 449 1 2  -0.546653  24.962178  13.448000  17.014410   # O_3
 450 1 3  -0.076141  22.686776  13.448000  17.657224   # C_3
 451 1 3   0.039124  21.360803  13.448000  17.339851   # C_3
 452 1 3  -0.028227  23.004149  13.448000  18.983197   # C_3
 453 1 3  -0.077361  20.387168  13.448000  18.275832   # C_3
 454 1 4   0.053799  21.116050  13.448000  16.444214   # H_
 455 1 3   0.077245  22.068168  13.448000  19.956832   # C_3
 456 1 4   0.112971  23.899786  13.448000  19.227950   # H_
 457 1 3   0.022897  20.691093  13.448000  19.652907   # C_3
 458 1 3   0.028785  19.652907  13.448000  20.691093   # C_3
 459 1 4   0.095577  19.496910  13.448000  18.006872   # H_
 460 1 3   0.062352  18.275832  13.448000  20.387168   # C_3
 461 1 5  -0.053859  22.608778  13.448000  21.372100   # N_3
 462 1 3  -0.074271  19.956832  13.448000  22.068168   # C_3
 463 1 3  -0.022781  17.339851  13.448000  21.360803   # C_3
 464 1 5  -0.071215  17.769918  13.448000  18.968942   # N_3
 465 1 3   0.045496  18.983197  13.448000  23.004149   # C_3
 466 1 4   0.113237  20.847090  13.448000  22.337128   # H_
 467 1 3  -0.079887  17.657224  13.448000  22.686776   # C_3
 468 1 3   0.468077  16.600211  13.448000  23.743789   # C_3
 469 1 4   0.083732  16.444214  13.448000  21.116050   # H_
 470 1 4   0.083287  19.227950  13.448000  23.899786   # H_
 471 1 2  -0.609015  15.381822  13.448000  23.329590   # O_3
 472 1 2  -0.545895  17.014410  13.448000  24.962178   # O_3
 473 1 5  -0.024730  16.592142  13.448000  18.627094   # N_3
 474 1 5  -0.037962  15.461972  13.448000  18.245440   # N_3
 475 1 5  -0.004497  23.821787  13.448000  21.523524   # N_3
 476 1 5   0.022778  25.003060  13.448000  21.661232   # N_3
 477 1 2  -0.609004  23.329590  13.448000  11.514178   # O_3
 478 1 3   0.465853  23.743789  13.448000  10.295789   # C_3
 479 1 2  -0.547702  24.962178  13.448000   9.881590   # O_3
 480 1 3  -0.076989  22.686776  13.448000   9.238776   # C_3
 481 1 3   0.036163  21.360803  13.448000   9.556149   # C_3
 482 1 3  -0.030161  23.004149  13.448000   7.912803   # C_3
 483 1 3  -0.076159  20.387168  13.448000   8.620168   # C_3
 484 1 4   0.053953  21.116050  13.448000  10.451786   # H_
 485 1 3   0.072780  22.068168  13.448000   6.939168   # C_3
 486 1 4   0.110461  23.899786  13.448000   7.668050   # H_