 (written by mofun)

728 atoms
0 bonds
0 angles
0 dihedrals
0 impropers

4 atom types
   0.000000  26.896000 xlo xhi
   0.000000  26.896000 ylo yhi
   0.000000  26.896000 zlo zhi

Masses

 1 91.2240   # Zr3+4
 2 15.9994   # O_3
 3 12.0107   # C_3
 4 1.0079   # H_

Pair Coeffs

 1   0.069000   2.783168 # Zr3+4
 2   0.060000   3.118146 # O_3
 3   0.105000   3.430851 # C_3
 4   0.044000   2.571134 # H_

Atoms

 1 1 1   3.183240   2.475508   0.000000   0.000000   # Zr3+4
 2 1 1   3.182360  24.420492   0.000000   0.000000   # Zr3+4
 3 1 1   3.183260   0.000000   2.475508   0.000000   # Zr3+4
 4 1 1   3.182360   0.000000  24.420492   0.000000   # Zr3+4
 5 1 1   3.183230   0.000000   0.000000   2.475508   # Zr3+4
 6 1 1   3.182330   0.000000   0.000000  24.420492   # Zr3+4
 7 1 1   3.215520   2.475508  13.448000  13.448000   # Zr3+4
 8 1 1   3.214220  24.420492  13.448000  13.448000   # Zr3+4
 9 1 1   3.199510   0.000000  15.923508  13.448000   # Zr3+4
 10 1 1   3.199400   0.000000  10.972492  13.448000   # Zr3+4
 11 1 1   3.199400   0.000000  13.448000  15.923508   # Zr3+4
 12 1 1   3.199270   0.000000  13.448000  10.972492   # Zr3+4
 13 1 1   3.199320  15.923508   0.000000  13.448000   # Zr3+4
 14 1 1   3.199290  10.972492   0.000000  13.448000   # Zr3+4
 15 1 1   3.215560  13.448000   2.475508  13.448000   # Zr3+4
 16 1 1   3.214210  13.448000  24.420492  13.448000   # Zr3+4
 17 1 1   3.199470  13.448000   0.000000  15.923508   # Zr3+4
 18 1 1   3.199350  13.448000   0.000000  10.972492   # Zr3+4
 19 1 1   3.199530  15.923508  13.448000   0.000000   # Zr3+4
 20 1 1   3.199430  10.972492  13.448000   0.000000   # Zr3+4
 21 1 1   3.199290  13.448000  15.923508   0.000000   # Zr3+4
 22 1 1   3.199180  13.448000  10.972492   0.000000   # Zr3+4
 23 1 1   3.215520  13.448000  13.448000   2.475508   # Zr3+4
 24 1 1   3.214160  13.448000  13.448000  24.420492   # Zr3+4
 25 1 2  -1.344090   1.221078   1.221078   1.221078   # O_3
 26 1 2  -1.119720  25.674922  25.674922   1.221078   # O_3
 27 1 2  -1.119940  25.674922   1.221078  25.674922   # O_3
 28 1 2  -1.119880   1.221078  25.674922  25.674922   # O_3
 29 1 2  -1.230450   1.221078   1.221078  25.674922   # O_3
 30 1 2  -1.012600  25.674922  25.674922  25.674922   # O_3
 31 1 2  -1.230240   1.221078  25.674922   1.221078   # O_3
 32 1 2  -1.230390  25.674922   1.221078   1.221078   # O_3
 33 1 2  -1.279040   1.221078  14.669078  14.669078   # O_3
 34 1 2  -1.164740  25.674922  12.226922  14.669078   # O_3
 35 1 2  -1.164720  25.674922  14.669078  12.226922   # O_3
 36 1 2  -1.279520   1.221078  12.226922  12.226922   # O_3
 37 1 2  -1.279330   1.221078  14.669078  12.226922   # O_3
 38 1 2  -1.164880  25.674922  12.226922  12.226922   # O_3
 39 1 2  -1.279300   1.221078  12.226922  14.669078   # O_3
 40 1 2  -1.164930  25.674922  14.669078  14.669078   # O_3
 41 1 2  -1.279420  14.669078   1.221078  14.669078   # O_3
 42 1 2  -1.165160  12.226922  25.674922  14.669078   # O_3
 43 1 2  -1.279480  12.226922   1.221078  12.226922   # O_3
 44 1 2  -1.163920  14.669078  25.674922  12.226922   # O_3
 45 1 2  -1.278570  14.669078   1.221078  12.226922   # O_3
 46 1 2  -1.164660  12.226922  25.674922  12.226922   # O_3
 47 1 2  -1.164850  14.669078  25.674922  14.669078   # O_3
 48 1 2  -1.280010  12.226922   1.221078  14.669078   # O_3
 49 1 2  -1.277980  14.669078  14.669078   1.221078   # O_3
 50 1 2  -1.279710  12.226922  12.226922   1.221078   # O_3
 51 1 2  -1.166280  12.226922  14.669078  25.674922   # O_3
 52 1 2  -1.163740  14.669078  12.226922  25.674922   # O_3
 53 1 2  -1.164900  14.669078  14.669078  25.674922   # O_3
 54 1 2  -1.165240  12.226922  12.226922  25.674922   # O_3
 55 1 2  -1.279510  14.669078  12.226922   1.221078   # O_3
 56 1 2  -1.279900  12.226922  14.669078   1.221078   # O_3
 57 1 2  -0.693990   3.566410   0.000000   1.933822   # O_3
 58 1 3   0.496341   3.152211   0.000000   3.152211   # C_3
 59 1 2  -0.692405   1.933822   0.000000   3.566410   # O_3
 60 1 3  -0.193427   4.209224   0.000000   4.209224   # C_3
 61 1 3   0.080271   5.535197   0.000000   3.891851   # C_3
 62 1 3   0.067004   3.891851   0.000000   5.535197   # C_3
 63 1 3  -0.130483   6.508832   0.000000   4.827832   # C_3
 64 1 4  -0.013572   5.779950   0.000000   2.996214   # H_
 65 1 3  -0.123917   4.827832   0.000000   6.508832   # C_3
 66 1 2  -0.000222   2.498100  26.886317   5.936485   # O_3
 67 1 3   0.005974   6.204907   0.000000   6.204907   # C_3
 68 1 3   0.125740   7.243093   0.000000   7.243093   # C_3
 69 1 4   0.048934   7.399090   0.000000   4.558872   # H_
 70 1 3  -0.288535   8.620168   0.000000   6.939168   # C_3
 71 1 4   0.046938   4.558872   0.000000   7.399090   # H_
 72 1 3  -0.234263   6.939168   0.000000   8.620168   # C_3
 73 1 3   0.299734   9.556149   0.000000   7.912803   # C_3
 74 1 4   0.116946   8.889128   0.000000   6.048910   # H_
 75 1 3   0.185490   7.912803   0.000000   9.556149   # C_3
 76 1 4   0.091144   6.048910   0.000000   8.889128   # H_
 77 1 3  -0.299862   9.238776   0.000000   9.238776   # C_3
 78 1 3   0.531377  10.295789   0.000000  10.295789   # C_3
 79 1 2  -0.333346  10.953934   0.002421   7.523887   # O_3
 80 1 4  -0.027835   7.668050   0.000000  10.451786   # H_
 81 1 2  -0.669702  11.514178   0.000000   9.881590   # O_3
 82 1 2  -0.678644   9.881590   0.000000  11.514178   # O_3
 83 1 4   0.154505  11.216439   0.950505   7.390752   # H_
 84 1 4   0.005401   2.221341   0.943781   5.972257   # H_
 85 1 2  -0.685188  23.329590   0.000000   1.933822   # O_3
 86 1 3   0.487960  23.743789   0.000000   3.152211   # C_3
 87 1 2  -0.610697  24.962178   0.000000   3.566410   # O_3
 88 1 3  -0.174351  22.686776   0.000000   4.209224   # C_3
 89 1 3   0.078186  21.360803   0.000000   3.891851   # C_3
 90 1 3   0.079404  23.004149   0.000000   5.535197   # C_3
 91 1 3  -0.121633  20.387168   0.000000   4.827832   # C_3
 92 1 4  -0.008679  21.116050   0.000000   2.996214   # H_
 93 1 3  -0.116018  22.068168   0.000000   6.508832   # C_3
 94 1 2   0.045193  24.398168  26.886048   5.936216   # O_3
 95 1 3   0.011503  20.691093   0.000000   6.204907   # C_3
 96 1 3   0.136154  19.652907   0.000000   7.243093   # C_3
 97 1 4   0.049761  19.496910   0.000000   4.558872   # H_
 98 1 3  -0.289482  18.275832   0.000000   6.939168   # C_3
 99 1 4   0.070117  22.337128   0.000000   7.399090   # H_
 100 1 3  -0.235358  19.956832   0.000000   8.620168   # C_3
 101 1 3   0.304846  17.339851   0.000000   7.912803   # C_3
 102 1 4   0.120383  18.006872   0.000000   6.048910   # H_
 103 1 3   0.194923  18.983197   0.000000   9.556149   # C_3
 104 1 4   0.111014  20.847090   0.000000   8.889128   # H_
 105 1 3  -0.299682  17.657224   0.000000   9.238776   # C_3
 106 1 3   0.534000  16.600211   0.000000  10.295789   # C_3
 107 1 2  -0.332506  15.942335   0.002959   7.524156   # O_3
 108 1 4  -0.020627  19.227950   0.000000  10.451786   # H_
 109 1 2  -0.668690  15.381822   0.000000   9.881590   # O_3
 110 1 2  -0.676055  17.014410   0.000000  11.514178   # O_3
 111 1 4   0.155975  15.682251   0.950505   7.381876   # H_
 112 1 4   0.054083  24.673315   0.944319   5.973064   # H_
 113 1 2  -0.595527  23.329590   0.000000  24.962178   # O_3
 114 1 3   0.475060  23.743789   0.000000  23.743789   # C_3
 115 1 2  -0.601699  24.962178   0.000000  23.329590   # O_3
 116 1 3  -0.137433  22.686776   0.000000  22.686776   # C_3
 117 1 3   0.060989  21.360803   0.000000  23.004149   # C_3
 118 1 3   0.071024  23.004149   0.000000  21.360803   # C_3
 119 1 3  -0.088419  20.387168   0.000000  22.068168   # C_3
 120 1 4   0.046206  21.116050   0.000000  23.899786   # H_
 121 1 3  -0.097527  22.068168   0.000000  20.387168   # C_3
 122 1 2   0.046049  24.398706  26.886048  20.960053   # O_3
 123 1 3   0.001892  20.691093   0.000000  20.691093   # C_3
 124 1 3   0.156814  19.652907   0.000000  19.652907   # C_3
 125 1 4   0.066700  19.496910   0.000000  22.337128   # H_
 126 1 3  -0.302336  18.275832   0.000000  19.956832   # C_3
 127 1 4   0.065112  22.337128   0.000000  19.496910   # H_
 128 1 3  -0.253662  19.956832   0.000000  18.275832   # C_3
 129 1 3   0.320333  17.339851   0.000000  18.983197   # C_3
 130 1 4   0.142836  18.006872   0.000000  20.847090   # H_
 131 1 3   0.211197  18.983197   0.000000  17.339851   # C_3
 132 1 4   0.114899  20.847090   0.000000  18.006872   # H_
 133 1 3  -0.314861  17.657224   0.000000  17.657224   # C_3
 134 1 3   0.537658  16.600211   0.000000  16.600211   # C_3
 135 1 2  -0.325124  15.942335   0.004034  19.372920   # O_3
 136 1 4  -0.042369  19.227950   0.000000  16.444214   # H_
 137 1 2  -0.668332  15.381822   0.000000  17.014410   # O_3
 138 1 2  -0.688532  17.014410   0.000000  15.381822   # O_3
 139 1 4   0.164645  15.695430   0.950236  19.543978   # H_
 140 1 4   0.057535  24.672508   0.944588  20.922398   # H_
 141 1 2  -0.603476   3.566410   0.000000  24.962178   # O_3
 142 1 3   0.482897   3.152211   0.000000  23.743789   # C_3
 143 1 2  -0.682363   1.933822   0.000000  23.329590   # O_3
 144 1 3  -0.156478   4.209224   0.000000  22.686776   # C_3
 145 1 3   0.063076   5.535197   0.000000  23.004149   # C_3
 146 1 3   0.058640   3.891851   0.000000  21.360803   # C_3
 147 1 3  -0.097656   6.508832   0.000000  22.068168   # C_3
 148 1 4   0.041189   5.779950   0.000000  23.899786   # H_
 149 1 3  -0.105728   4.827832   0.000000  20.387168   # C_3
 150 1 2   0.001051   2.498100  26.886317  20.959515   # O_3
 151 1 3  -0.003080   6.204907   0.000000  20.691093   # C_3
 152 1 3   0.145199   7.243093   0.000000  19.652907   # C_3
 153 1 4   0.065980   7.399090   0.000000  22.337128   # H_
 154 1 3  -0.300051   8.620168   0.000000  19.956832   # C_3
 155 1 4   0.042138   4.558872   0.000000  19.496910   # H_
 156 1 3  -0.250078   6.939168   0.000000  18.275832   # C_3
 157 1 3   0.314051   9.556149   0.000000  18.983197   # C_3
 158 1 4   0.138903   8.889128   0.000000  20.847090   # H_
 159 1 3   0.199366   7.912803   0.000000  17.339851   # C_3
 160 1 4   0.094382   6.048910   0.000000  18.006872   # H_
 161 1 3  -0.311863   9.238776   0.000000  17.657224   # C_3
 162 1 3   0.534548  10.295789   0.000000  16.600211   # C_3
 163 1 2  -0.325358  10.953665   0.004034  19.372651   # O_3
 164 1 4  -0.045155   7.668050   0.000000  16.444214   # H_
 165 1 2  -0.668764  11.514178   0.000000  17.014410   # O_3
 166 1 2  -0.686680   9.881590   0.000000  15.381822   # O_3
 167 1 4   0.162730  11.201915   0.950236  19.541827   # H_
 168 1 4   0.009110   2.221341   0.943781  20.923743   # H_
 169 1 2  -0.693819   1.933822   3.566410   0.000000   # O_3
 170 1 3   0.495968   3.152211   3.152211   0.000000   # C_3
 171 1 2  -0.692223   3.566410   1.933822   0.000000   # O_3
 172 1 3  -0.192370   4.209224   4.209224   0.000000   # C_3
 173 1 3   0.078644   3.891851   5.535197   0.000000   # C_3
 174 1 3   0.065674   5.535197   3.891851   0.000000   # C_3
 175 1 3  -0.128520   4.827832   6.508832   0.000000   # C_3
 176 1 4  -0.012995   2.996214   5.779950   0.000000   # H_
 177 1 3  -0.122214   6.508832   4.827832   0.000000   # C_3
 178 1 2   0.000129   5.925727   2.488687  26.885780   # O_3
 179 1 3   0.003007   6.204907   6.204907   0.000000   # C_3
 180 1 3   0.129275   7.243093   7.243093   0.000000   # C_3
 181 1 4   0.048042   4.558872   7.399090   0.000000   # H_
 182 1 3  -0.292381   6.939168   8.620168   0.000000   # C_3
 183 1 4   0.045245   7.399090   4.558872   0.000000   # H_
 184 1 3  -0.244211   8.620168   6.939168   0.000000   # C_3
 185 1 3   0.301005   7.912803   9.556149   0.000000   # C_3
 186 1 4   0.117259   6.048910   8.889128   0.000000   # H_
 187 1 3   0.192054   9.556149   7.912803   0.000000   # C_3
 188 1 4   0.090850   8.889128   6.048910   0.000000   # H_
 189 1 3  -0.309204   9.238776   9.238776   0.000000   # C_3
 190 1 3   0.533107  10.295789  10.295789   0.000000   # C_3
 191 1 2  -0.331126   7.513667  10.954741   0.006186   # O_3
 192 1 4  -0.047534  10.451786   7.668050   0.000000   # H_
 193 1 2  -0.669038   9.881590  11.514178   0.000000   # O_3
 194 1 2  -0.694252  11.514178   9.881590   0.000000   # O_3
 195 1 4   0.150871   7.265148  11.151082   0.946739   # H_
 196 1 4   0.004463   6.013946   2.249044   0.950774   # H_
 197 1 2  -0.685150   1.933822  23.329590   0.000000   # O_3
 198 1 3   0.487398   3.152211  23.743789   0.000000   # C_3
 199 1 2  -0.610330   3.566410  24.962178   0.000000   # O_3
 200 1 3  -0.173250   4.209224  22.686776   0.000000   # C_3
 201 1 3   0.075933   3.891851  21.360803   0.000000   # C_3
 202 1 3   0.077513   5.535197  23.004149   0.000000   # C_3
 203 1 3  -0.119873   4.827832  20.387168   0.000000   # C_3
 204 1 4  -0.008419   2.996214  21.116050   0.000000   # H_
 205 1 3  -0.114434   6.508832  22.068168   0.000000   # C_3
 206 1 2   0.046070   5.925458  24.407582  26.885780   # O_3
 207 1 3   0.007759   6.204907  20.691093   0.000000   # C_3
 208 1 3   0.138733   7.243093  19.652907   0.000000   # C_3
 209 1 4   0.047959   4.558872  19.496910   0.000000   # H_
 210 1 3  -0.293914   6.939168  18.275832   0.000000   # C_3
 211 1 4   0.067893   7.399090  22.337128   0.000000   # H_
 212 1 3  -0.245852   8.620168  19.956832   0.000000   # C_3
 213 1 3   0.304743   7.912803  17.339851   0.000000   # C_3
 214 1 4   0.119859   6.048910  18.006872   0.000000   # H_
 215 1 3   0.200151   9.556149  18.983197   0.000000   # C_3
 216 1 4   0.110113   8.889128  20.847090   0.000000   # H_
 217 1 3  -0.310265   9.238776  17.657224   0.000000   # C_3
 218 1 3   0.533873  10.295789  16.600211   0.000000   # C_3
 219 1 2  -0.331676   7.514742  15.941259   0.005917   # O_3
 220 1 4  -0.040780  10.451786  19.227950   0.000000   # H_
 221 1 2  -0.669411   9.881590  15.381822   0.000000   # O_3
 222 1 2  -0.692454  11.514178  17.014410   0.000000   # O_3
 223 1 4   0.152122   7.271603  15.741153   0.947277   # H_
 224 1 4   0.052425   6.016366  24.646688   0.950774   # H_
 225 1 2  -0.595588  24.962178  23.329590   0.000000   # O_3
 226 1 3   0.475565  23.743789  23.743789   0.000000   # C_3
 227 1 2  -0.601322  23.329590  24.962178   0.000000   # O_3
 228 1 3  -0.138677  22.686776  22.686776   0.000000   # C_3
 229 1 3   0.063156  23.004149  21.360803   0.000000   # C_3
 230 1 3   0.072891  21.360803  23.004149   0.000000   # C_3
 231 1 3  -0.091330  22.068168  20.387168   0.000000   # C_3
 232 1 4   0.045170  23.899786  21.116050   0.000000   # H_
 233 1 3  -0.100057  20.387168  22.068168   0.000000   # C_3
 234 1 2   0.047499  20.970273  24.407313  26.885780   # O_3
 235 1 3   0.006440  20.691093  20.691093   0.000000   # C_3
 236 1 3   0.150515  19.652907  19.652907   0.000000   # C_3
 237 1 4   0.067331  22.337128  19.496910   0.000000   # H_
 238 1 3  -0.293686  19.956832  18.275832   0.000000   # C_3
 239 1 4   0.067932  19.496910  22.337128   0.000000   # H_
 240 1 3  -0.240272  18.275832  19.956832   0.000000   # C_3
 241 1 3   0.310844  18.983197  17.339851   0.000000   # C_3
 242 1 4   0.138695  20.847090  18.006872   0.000000   # H_
 243 1 3   0.201661  17.339851  18.983197   0.000000   # C_3
 244 1 4   0.115510  18.006872  20.847090   0.000000   # H_
 245 1 3  -0.300873  17.657224  17.657224   0.000000   # C_3
 246 1 3   0.535239  16.600211  16.600211   0.000000   # C_3
 247 1 2  -0.321345  19.387713  15.940990   0.006724   # O_3
 248 1 4  -0.021893  16.444214  19.227950   0.000000   # H_
 249 1 2  -0.665616  17.014410  15.381822   0.000000   # O_3
 250 1 2  -0.676496  15.381822  17.014410   0.000000   # O_3
 251 1 4   0.162519  19.658824  15.762132   0.944050   # H_
 252 1 4   0.056942  20.880710  24.646688   0.950774   # H_
 253 1 2  -0.603350  24.962178   3.566410   0.000000   # O_3
 254 1 3   0.483465  23.743789   3.152211   0.000000   # C_3
 255 1 2  -0.682151  23.329590   1.933822   0.000000   # O_3
 256 1 3  -0.157485  22.686776   4.209224   0.000000   # C_3
 257 1 3   0.065360  23.004149   5.535197   0.000000   # C_3
 258 1 3   0.060708  21.360803   3.891851   0.000000   # C_3
 259 1 3  -0.099832  22.068168   6.508832   0.000000   # C_3
 260 1 4   0.040675  23.899786   5.779950   0.000000   # H_
 261 1 3  -0.107699  20.387168   4.827832   0.000000   # C_3
 262 1 2   0.002097  20.970004   2.488687  26.885780   # O_3
 263 1 3   0.001286  20.691093   6.204907   0.000000   # C_3
 264 1 3   0.140959  19.652907   7.243093   0.000000   # C_3
 265 1 4   0.067214  22.337128   7.399090   0.000000   # H_
 266 1 3  -0.292645  19.956832   8.620168   0.000000   # C_3
 267 1 4   0.045194  19.496910   4.558872   0.000000   # H_
 268 1 3  -0.239037  18.275832   6.939168   0.000000   # C_3
 269 1 3   0.306983  18.983197   9.556149   0.000000   # C_3
 270 1 4   0.136098  20.847090   8.889128   0.000000   # H_
 271 1 3   0.193264  17.339851   7.912803   0.000000   # C_3
 272 1 4   0.096244  18.006872   6.048910   0.000000   # H_
 273 1 3  -0.300625  17.657224   9.238776   0.000000   # C_3
 274 1 3   0.533769  16.600211  10.295789   0.000000   # C_3
 275 1 2  -0.320821  19.386368  10.955010   0.006724   # O_3
 276 1 4  -0.028805  16.444214   7.668050   0.000000   # H_
 277 1 2  -0.665951  17.014410  11.514178   0.000000   # O_3
 278 1 2  -0.679023  15.381822   9.881590   0.000000   # O_3
 279 1 4   0.160282  19.653714  11.137096   0.944588   # H_
 280 1 4   0.009108  20.882323   2.249044   0.950774   # H_
 281 1 2  -0.693963   0.000000   1.933822   3.566410   # O_3
 282 1 3   0.496026   0.000000   3.152211   3.152211   # C_3
 283 1 2  -0.692231   0.000000   3.566410   1.933822   # O_3
 284 1 3  -0.192447   0.000000   4.209224   4.209224   # C_3
 285 1 3   0.078986   0.000000   3.891851   5.535197   # C_3
 286 1 3   0.065639   0.000000   5.535197   3.891851   # C_3
 287 1 3  -0.128732   0.000000   4.827832   6.508832   # C_3
 288 1 4  -0.013034   0.000000   2.996214   5.779950   # H_
 289 1 3  -0.122318   0.000000   6.508832   4.827832   # C_3
 290 1 2   0.000248  26.885780   5.925727   2.488687   # O_3
 291 1 3   0.003468   0.000000   6.204907   6.204907   # C_3
 292 1 3   0.128414   0.000000   7.243093   7.243093   # C_3
 293 1 4   0.048497   0.000000   4.558872   7.399090   # H_
 294 1 3  -0.291078   0.000000   6.939168   8.620168   # C_3
 295 1 4   0.044923   0.000000   7.399090   4.558872   # H_
 296 1 3  -0.242896   0.000000   8.620168   6.939168   # C_3
 297 1 3   0.299664   0.000000   7.912803   9.556149   # C_3
 298 1 4   0.117125   0.000000   6.048910   8.889128   # H_
 299 1 3   0.190004   0.000000   9.556149   7.912803   # C_3
 300 1 4   0.089403   0.000000   8.889128   6.048910   # H_
 301 1 3  -0.306502   0.000000   9.238776   9.238776   # C_3
 302 1 3   0.532227   0.000000  10.295789  10.295789   # C_3
 303 1 2  -0.330445   0.006455   7.511784  10.955010   # O_3
 304 1 4  -0.045922   0.000000  10.451786   7.668050   # H_
 305 1 2  -0.668431   0.000000   9.881590  11.514178   # O_3
 306 1 2  -0.688956   0.000000  11.514178   9.881590   # O_3
 307 1 4   0.150948   0.945663   7.254658  11.144627   # H_
 308 1 4   0.004270   0.950774   6.014752   2.249312   # H_
 309 1 2  -0.685483   0.000000   1.933822  23.329590   # O_3
 310 1 3   0.487946   0.000000   3.152211  23.743789   # C_3
 311 1 2  -0.610560   0.000000   3.566410  24.962178   # O_3
 312 1 3  -0.174544   0.000000   4.209224  22.686776   # C_3
 313 1 3   0.078141   0.000000   3.891851  21.360803   # C_3
 314 1 3   0.079118   0.000000   5.535197  23.004149   # C_3
 315 1 3  -0.122414   0.000000   4.827832  20.387168   # C_3
 316 1 4  -0.009343   0.000000   2.996214  21.116050   # H_
 317 1 3  -0.116525   0.000000   6.508832  22.068168   # C_3
 318 1 2   0.046309  26.885780   5.925458  24.407582   # O_3
 319 1 3   0.011865   0.000000   6.204907  20.691093   # C_3
 320 1 3   0.133574   0.000000   7.243093  19.652907   # C_3
 321 1 4   0.049038   0.000000   4.558872  19.496910   # H_
 322 1 3  -0.286852   0.000000   6.939168  18.275832   # C_3
 323 1 4   0.069900   0.000000   7.399090  22.337128   # H_
 324 1 3  -0.233351   0.000000   8.620168  19.956832   # C_3
 325 1 3   0.299101   0.000000   7.912803  17.339851   # C_3
 326 1 4   0.117660   0.000000   6.048910  18.006872   # H_
 327 1 3   0.191412   0.000000   9.556149  18.983197   # C_3
 328 1 4   0.109788   0.000000   8.889128  20.847090   # H_
 329 1 3  -0.296851   0.000000   9.238776  17.657224   # C_3
 330 1 3   0.531839   0.000000  10.295789  16.600211   # C_3
 331 1 2  -0.329423   0.006455   7.512322  15.940990   # O_3
 332 1 4  -0.020038   0.000000  10.451786  19.227950   # H_
 333 1 2  -0.667493   0.000000   9.881590  15.381822   # O_3
 334 1 2  -0.675886   0.000000  11.514178  17.014410   # O_3
 335 1 4   0.151541   0.945932   7.257079  15.749760   # H_
 336 1 4   0.052392   0.950774   6.016366  24.646688   # H_
 337 1 2  -0.595603   0.000000  24.962178  23.329590   # O_3
 338 1 3   0.474971   0.000000  23.743789  23.743789   # C_3
 339 1 2  -0.601500   0.000000  23.329590  24.962178   # O_3
 340 1 3  -0.137536   0.000000  22.686776  22.686776   # C_3
 341 1 3   0.060828   0.000000  23.004149  21.360803   # C_3
 342 1 3   0.070662   0.000000  21.360803  23.004149   # C_3
 343 1 3  -0.089250   0.000000  22.068168  20.387168   # C_3
 344 1 4   0.045615   0.000000  23.899786  21.116050   # H_
 345 1 3  -0.098087   0.000000  20.387168  22.068168   # C_3
 346 1 2   0.047367  26.885780  20.970542  24.407582   # O_3
 347 1 3   0.002378   0.000000  20.691093  20.691093   # C_3
 348 1 3   0.153790   0.000000  19.652907  19.652907   # C_3
 349 1 4   0.065864   0.000000  22.337128  19.496910   # H_
 350 1 3  -0.298861   0.000000  19.956832  18.275832   # C_3
 351 1 4   0.064883   0.000000  19.496910  22.337128   # H_
 352 1 3  -0.250881   0.000000  18.275832  19.956832   # C_3
 353 1 3   0.313978   0.000000  18.983197  17.339851   # C_3
 354 1 4   0.139736   0.000000  20.847090  18.006872   # H_
 355 1 3   0.206906   0.000000  17.339851  18.983197   # C_3
 356 1 4   0.113118   0.000000  18.006872  20.847090   # H_
 357 1 3  -0.310299   0.000000  17.657224  17.657224   # C_3
 358 1 3   0.535817   0.000000  16.600211  16.600211   # C_3
 359 1 2  -0.322199   0.006993  19.387713  15.940990   # O_3
 360 1 4  -0.040728   0.000000  16.444214  19.227950   # H_
 361 1 2  -0.666535   0.000000  17.014410  15.381822   # O_3
 362 1 2  -0.685456   0.000000  15.381822  17.014410   # O_3
 363 1 4   0.161493   0.944050  19.659631  15.762401   # H_
 364 1 4   0.055841   0.950774  20.879096  24.646419   # H_
 365 1 2  -0.603217   0.000000  24.962178   3.566410   # O_3
 366 1 3   0.483410   0.000000  23.743789   3.152211   # C_3
 367 1 2  -0.682189   0.000000  23.329590   1.933822   # O_3
 368 1 3  -0.157269   0.000000  22.686776   4.209224   # C_3
 369 1 3   0.065205   0.000000  23.004149   5.535197   # C_3
 370 1 3   0.060336   0.000000  21.360803   3.891851   # C_3
 371 1 3  -0.099584   0.000000  22.068168   6.508832   # C_3
 372 1 4   0.040965   0.000000  23.899786   5.779950   # H_
 373 1 3  -0.107487   0.000000  20.387168   4.827832   # C_3
 374 1 2   0.002051  26.885780  20.970273   2.488687   # O_3
 375 1 3   0.000984   0.000000  20.691093   6.204907   # C_3
 376 1 3   0.140976   0.000000  19.652907   7.243093   # C_3
 377 1 4   0.067388   0.000000  22.337128   7.399090   # H_
 378 1 3  -0.292940   0.000000  19.956832   8.620168   # C_3
 379 1 4   0.044634   0.000000  19.496910   4.558872   # H_
 380 1 3  -0.239507   0.000000  18.275832   6.939168   # C_3
 381 1 3   0.306947   0.000000  18.983197   9.556149   # C_3
 382 1 4   0.136343   0.000000  20.847090   8.889128   # H_
 383 1 3   0.193001   0.000000  17.339851   7.912803   # C_3
 384 1 4   0.095656   0.000000  18.006872   6.048910   # H_
 385 1 3  -0.301091   0.000000  17.657224   9.238776   # C_3
 386 1 3   0.533174   0.000000  16.600211  10.295789   # C_3
 387 1 2  -0.321178   0.006724  19.386368  10.955010   # O_3
 388 1 4  -0.029629   0.000000  16.444214   7.668050   # H_
 389 1 2  -0.666274   0.000000  17.014410  11.514178   # O_3
 390 1 2  -0.678847   0.000000  15.381822   9.881590   # O_3
 391 1 4   0.160497   0.944856  19.652907  11.137634   # H_
 392 1 4   0.008678   0.950774  20.881785   2.249044   # H_
 393 1 2  -0.626431   3.566410  13.448000  15.381822   # O_3
 394 1 3   0.534950   3.152211  13.448000  16.600211   # C_3
 395 1 2  -0.625599   1.933822  13.448000  17.014410   # O_3
 396 1 3  -0.267326   4.209224  13.448000  17.657224   # C_3
 397 1 3   0.175720   5.535197  13.448000  17.339851   # C_3
 398 1 3   0.297346   3.891851  13.448000  18.983197   # C_3
 399 1 3  -0.196650   6.508832  13.448000  18.275832   # C_3
 400 1 4  -0.002808   5.779950  13.448000  16.444214   # H_
 401 1 3  -0.254924   4.827832  13.448000  19.956832   # C_3
 402 1 2  -0.294099   2.488149  13.460103  19.383140   # O_3
 403 1 3   0.110872   6.204907  13.448000  19.652907   # C_3
 404 1 3   0.095004   7.243093  13.448000  20.691093   # C_3
 405 1 4   0.102743   7.399090  13.448000  18.006872   # H_
 406 1 3  -0.239934   8.620168  13.448000  20.387168   # C_3
 407 1 4   0.136997   4.558872  13.448000  20.847090   # H_
 408 1 3  -0.163970   6.939168  13.448000  22.068168   # C_3
 409 1 3   0.291421   9.556149  13.448000  21.360803   # C_3
 410 1 4   0.125065   8.889128  13.448000  19.496910   # H_
 411 1 3   0.156356   7.912803  13.448000  23.004149   # C_3
 412 1 4   0.110309   6.048910  13.448000  22.337128   # H_
 413 1 3  -0.232357   9.238776  13.448000  22.686776   # C_3
 414 1 3   0.521359  10.295789  13.448000  23.743789   # C_3
 415 1 2  -0.300682  10.962003  13.448807  21.020031   # O_3
 416 1 4   0.047964   7.668050  13.448000  23.899786   # H_
 417 1 2  -0.608087  11.514178  13.448000  23.329590   # O_3
 418 1 2  -0.544051   9.881590  13.448000  24.962178   # O_3
 419 1 4   0.172039  11.198688  14.370264  20.906530   # H_
 420 1 4   0.155775   2.355552  14.413028  19.590240   # H_
 421 1 2  -0.616999  23.329590  13.448000  15.381822   # O_3
 422 1 3   0.528669  23.743789  13.448000  16.600211   # C_3
 423 1 2  -0.543396  24.962178  13.448000  17.014410   # O_3
 424 1 3  -0.249552  22.686776  13.448000  17.657224   # C_3
 425 1 3   0.176310  21.360803  13.448000  17.339851   # C_3
 426 1 3   0.316022  23.004149  13.448000  18.983197   # C_3
 427 1 3  -0.189641  20.387168  13.448000  18.275832   # C_3
 428 1 4   0.002251  21.116050  13.448000  16.444214   # H_
 429 1 3  -0.249937  22.068168  13.448000  19.956832   # C_3
 430 1 2  -0.246009  24.402741  13.468441  19.413533   # O_3
 431 1 3   0.119077  20.691093  13.448000  19.652907   # C_3
 432 1 3   0.102784  19.652907  13.448000  20.691093   # C_3
 433 1 4   0.104733  19.496910  13.448000  18.006872   # H_
 434 1 3  -0.236109  18.275832  13.448000  20.387168   # C_3
 435 1 4   0.160343  22.337128  13.448000  20.847090   # H_
 436 1 3  -0.163191  19.956832  13.448000  22.068168   # C_3
 437 1 3   0.292464  17.339851  13.448000  21.360803   # C_3
 438 1 4   0.128550  18.006872  13.448000  19.496910   # H_
 439 1 3   0.164485  18.983197  13.448000  23.004149   # C_3
 440 1 4   0.128566  20.847090  13.448000  22.337128   # H_
 441 1 3  -0.231873  17.657224  13.448000  22.686776   # C_3
 442 1 3   0.523311  16.600211  13.448000  23.743789   # C_3
 443 1 2  -0.278719  15.952824  13.434552  21.008466   # O_3
 444 1 4   0.055067  19.227950  13.448000  23.899786   # H_
 445 1 2  -0.610068  15.381822  13.448000  23.329590   # O_3
 446 1 2  -0.541060  17.014410  13.448000  24.962178   # O_3
 447 1 4   0.155579  15.691126  14.417870  21.106905   # H_
 448 1 4   0.204932  24.674390  14.379677  19.698899   # H_
 449 1 2  -0.616738  23.329590  13.448000  11.514178   # O_3
 450 1 3   0.525001  23.743789  13.448000  10.295789   # C_3
 451 1 2  -0.544289  24.962178  13.448000   9.881590   # O_3
 452 1 3  -0.242289  22.686776  13.448000   9.238776   # C_3
 453 1 3   0.162983  21.360803  13.448000   9.556149   # C_3
 454 1 3   0.300169  23.004149  13.448000   7.912803   # C_3
 455 1 3  -0.178214  20.387168  13.448000   8.620168   # C_3
 456 1 4   0.005702  21.116050  13.448000  10.451786   # H_
 457 1 3  -0.238438  22.068168  13.448000   6.939168   # C_3
 458 1 2  -0.250556  24.404892  13.428366   7.491074   # O_3
 459 1 3   0.096764  20.691093  13.448000   7.243093   # C_3
 460 1 3   0.116092  19.652907  13.448000   6.204907   # C_3
 461 1 4   0.097896  19.496910  13.448000   8.889128   # H_
 462 1 3  -0.264142  18.275832  13.448000   6.508832   # C_3
 463 1 4   0.136785  22.337128  13.448000   6.048910   # H_
 464 1 3  -0.206651  19.956832  13.448000   4.827832   # C_3
 465 1 3   0.312011  17.339851  13.448000   5.535197   # C_3
 466 1 4   0.134763  18.006872  13.448000   7.399090   # H_
 467 1 3   0.188865  18.983197  13.448000   3.891851   # C_3
 468 1 4   0.111208  20.847090  13.448000   4.558872   # H_
 469 1 3  -0.280264  17.657224  13.448000   4.209224   # C_3
 470 1 3   0.538665  16.600211  13.448000   3.152211   # C_3
 471 1 2  -0.304041  15.952018  13.458758   5.891031   # O_3
 472 1 4  -0.014086  19.227950  13.448000   2.996214   # H_
 473 1 2  -0.619852  15.381822  13.448000   3.566410   # O_3
 474 1 2  -0.638928  17.014410  13.448000   1.933822   # O_3
 475 1 4   0.168439  15.693816  12.522509   5.846384   # H_
 476 1 4   0.191111  24.666591  12.507447   7.217542   # H_
 477 1 2  -0.627426   3.566410  13.448000  11.514178   # O_3
 478 1 3   0.536320   3.152211  13.448000  10.295789   # C_3
 479 1 2  -0.629966   1.933822  13.448000   9.881590   # O_3
 480 1 3  -0.273909   4.209224  13.448000   9.238776   # C_3
 481 1 3   0.175057   5.535197  13.448000   9.556149   # C_3
 482 1 3   0.304566   3.891851  13.448000   7.912803   # C_3
 483 1 3  -0.197112   6.508832  13.448000   8.620168   # C_3
 484 1 4  -0.003951   5.779950  13.448000  10.451786   # H_
 485 1 3  -0.259297   4.827832  13.448000   6.939168   # C_3
 486 1 2  -0.311383   2.511548  13.424600   7.524694   # O_3
 487 1 3   0.100548   6.204907  13.448000   7.243093   # C_3
 488 1 3   0.097265   7.243093  13.448000   6.204907   # C_3