 (written by mofun)

1160 atoms
0 bonds
0 angles
0 dihedrals
0 impropers

4 atom types
   0.000000  26.896000 xlo xhi
   0.000000  26.896000 ylo yhi
   0.000000  26.896000 zlo zhi

Masses

 1 91.2240   # Zr3+4
 2 15.9994   # O_3
 3 12.0107   # C_3
 4 1.0079   # H_

Pair Coeffs

 1   0.069000   2.783168 # Zr3+4
 2   0.060000   3.118146 # O_3
 3   0.105000   3.430851 # C_3
 4   0.044000   2.571134 # H_

Atoms

 1 1 1   3.191020   2.475508   0.000000   0.000000   # Zr3+4
 2 1 1   3.190530  24.420492   0.000000   0.000000   # Zr3+4
 3 1 1   3.191770   0.000000   2.475508   0.000000   # Zr3+4
 4 1 1   3.191240   0.000000  24.420492   0.000000   # Zr3+4
 5 1 1   3.190790   0.000000   0.000000   2.475508   # Zr3+4
 6 1 1   3.190320   0.000000   0.000000  24.420492   # Zr3+4
 7 1 1   3.215300   2.475508  13.448000  13.448000   # Zr3+4
 8 1 1   3.214320  24.420492  13.448000  13.448000   # Zr3+4
 9 1 1   3.203140   0.000000  15.923508  13.448000   # Zr3+4
 10 1 1   3.203100   0.000000  10.972492  13.448000   # Zr3+4
 11 1 1   3.203210   0.000000  13.448000  15.923508   # Zr3+4
 12 1 1   3.203170   0.000000  13.448000  10.972492   # Zr3+4
 13 1 1   3.202630  15.923508   0.000000  13.448000   # Zr3+4
 14 1 1   3.202590  10.972492   0.000000  13.448000   # Zr3+4
 15 1 1   3.215260  13.448000   2.475508  13.448000   # Zr3+4
 16 1 1   3.214230  13.448000  24.420492  13.448000   # Zr3+4
 17 1 1   3.202620  13.448000   0.000000  15.923508   # Zr3+4
 18 1 1   3.202580  13.448000   0.000000  10.972492   # Zr3+4
 19 1 1   3.203540  15.923508  13.448000   0.000000   # Zr3+4
 20 1 1   3.203510  10.972492  13.448000   0.000000   # Zr3+4
 21 1 1   3.203580  13.448000  15.923508   0.000000   # Zr3+4
 22 1 1   3.203540  13.448000  10.972492   0.000000   # Zr3+4
 23 1 1   3.215280  13.448000  13.448000   2.475508   # Zr3+4
 24 1 1   3.214320  13.448000  13.448000  24.420492   # Zr3+4
 25 1 2  -1.320450   1.221078   1.221078   1.221078   # O_3
 26 1 2  -1.153720  25.674922  25.674922   1.221078   # O_3
 27 1 2  -1.159190  25.674922   1.221078  25.674922   # O_3
 28 1 2  -1.155420   1.221078  25.674922  25.674922   # O_3
 29 1 2  -1.234820   1.221078   1.221078  25.674922   # O_3
 30 1 2  -1.073260  25.674922  25.674922  25.674922   # O_3
 31 1 2  -1.229050   1.221078  25.674922   1.221078   # O_3
 32 1 2  -1.233100  25.674922   1.221078   1.221078   # O_3
 33 1 2  -1.272370   1.221078  14.669078  14.669078   # O_3
 34 1 2  -1.190320  25.674922  12.226922  14.669078   # O_3
 35 1 2  -1.190340  25.674922  14.669078  12.226922   # O_3
 36 1 2  -1.272340   1.221078  12.226922  12.226922   # O_3
 37 1 2  -1.268730   1.221078  14.669078  12.226922   # O_3
 38 1 2  -1.185170  25.674922  12.226922  12.226922   # O_3
 39 1 2  -1.268760   1.221078  12.226922  14.669078   # O_3
 40 1 2  -1.185520  25.674922  14.669078  14.669078   # O_3
 41 1 2  -1.273590  14.669078   1.221078  14.669078   # O_3
 42 1 2  -1.186700  12.226922  25.674922  14.669078   # O_3
 43 1 2  -1.273600  12.226922   1.221078  12.226922   # O_3
 44 1 2  -1.186710  14.669078  25.674922  12.226922   # O_3
 45 1 2  -1.269860  14.669078   1.221078  12.226922   # O_3
 46 1 2  -1.182120  12.226922  25.674922  12.226922   # O_3
 47 1 2  -1.182500  14.669078  25.674922  14.669078   # O_3
 48 1 2  -1.269860  12.226922   1.221078  14.669078   # O_3
 49 1 2  -1.270760  14.669078  14.669078   1.221078   # O_3
 50 1 2  -1.270770  12.226922  12.226922   1.221078   # O_3
 51 1 2  -1.189290  12.226922  14.669078  25.674922   # O_3
 52 1 2  -1.189310  14.669078  12.226922  25.674922   # O_3
 53 1 2  -1.187160  14.669078  14.669078  25.674922   # O_3
 54 1 2  -1.186790  12.226922  12.226922  25.674922   # O_3
 55 1 2  -1.268260  14.669078  12.226922   1.221078   # O_3
 56 1 2  -1.268260  12.226922  14.669078   1.221078   # O_3
 57 1 2  -0.676563   3.566410   0.000000   1.933822   # O_3
 58 1 3   0.501159   3.152211   0.000000   3.152211   # C_3
 59 1 2  -0.677725   1.933822   0.000000   3.566410   # O_3
 60 1 3  -0.202656   4.209224   0.000000   4.209224   # C_3
 61 1 3   0.091094   5.535197   0.000000   3.891851   # C_3
 62 1 3   0.105455   3.891851   0.000000   5.535197   # C_3
 63 1 3  -0.138157   6.508832   0.000000   4.827832   # C_3
 64 1 4  -0.005211   5.779950   0.000000   2.996214   # H_
 65 1 3  -0.145890   4.827832   0.000000   6.508832   # C_3
 66 1 2  -0.024049   2.494873  26.698583   5.972257   # O_3
 67 1 3   0.022294   6.204907   0.000000   6.204907   # C_3
 68 1 3   0.107989   7.243093   0.000000   7.243093   # C_3
 69 1 4   0.052608   7.399090   0.000000   4.558872   # H_
 70 1 3  -0.259902   8.620168   0.000000   6.939168   # C_3
 71 1 4   0.061626   4.558872   0.000000   7.399090   # H_
 72 1 3  -0.220992   6.939168   0.000000   8.620168   # C_3
 73 1 3   0.264507   9.556149   0.000000   7.912803   # C_3
 74 1 4   0.100256   8.889128   0.000000   6.048910   # H_
 75 1 3   0.171114   7.912803   0.000000   9.556149   # C_3
 76 1 4   0.080275   6.048910   0.000000   8.889128   # H_
 77 1 3  -0.281040   9.238776   0.000000   9.238776   # C_3
 78 1 3   0.527248  10.295789   0.000000  10.295789   # C_3
 79 1 2  -0.243538  10.965499   0.079343   7.557776   # O_3
 80 1 4  -0.036778   7.668050   0.000000  10.451786   # H_
 81 1 2  -0.662352  11.514178   0.000000   9.881590   # O_3
 82 1 2  -0.675323   9.881590   0.000000  11.514178   # O_3
 83 1 3   0.006226  11.290941   1.435708   7.231259   # C_3
 84 1 3  -0.114911   1.883527   1.056744   6.270533   # C_3
 85 1 3   0.003501  12.034615   1.436784   5.807653   # C_3
 86 1 4   0.052027  11.800351   1.798804   8.170198   # H_
 87 1 4   0.031329  10.354960   2.050282   7.137392   # H_
 88 1 4   0.015475  12.331009   2.496756   5.568817   # H_
 89 1 3  -0.321562  11.166143   1.013172   4.648974   # C_3
 90 1 4  -0.007534  12.951500   0.853948   5.798509   # H_
 91 1 4   0.187462  10.930803  26.813160   4.652201   # H_
 92 1 4   0.059513  11.649196   1.213548   3.715413   # H_
 93 1 3   0.013788   2.036027   1.502142   7.740131   # C_3
 94 1 4   0.012345   0.795315   0.911505   6.099206   # H_
 95 1 4   0.067016   2.235596   1.876803   5.596520   # H_
 96 1 3  -0.320273   1.845872   0.360137   8.727752   # C_3
 97 1 4  -0.000535   1.301228   2.307946   7.969823   # H_
 98 1 4   0.017312   3.048931   1.921719   7.867887   # H_
 99 1 4   0.157839   1.311449  26.395196   8.269444   # H_
 100 1 4   0.050728   2.820852   0.012103   9.115054   # H_
 101 1 4   0.075008  10.212142   1.644421   4.714331   # H_
 102 1 4   0.030922   1.246630   0.732378   9.580086   # H_
 103 1 2  -0.685355  23.329590   0.000000   1.933822   # O_3
 104 1 3   0.526194  23.743789   0.000000   3.152211   # C_3
 105 1 2  -0.623909  24.962178   0.000000   3.566410   # O_3
 106 1 3  -0.279618  22.686776   0.000000   4.209224   # C_3
 107 1 3   0.171729  21.360803   0.000000   3.891851   # C_3
 108 1 3   0.260046  23.004149   0.000000   5.535197   # C_3
 109 1 3  -0.220642  20.387168   0.000000   4.827832   # C_3
 110 1 4  -0.046092  21.116050   0.000000   2.996214   # H_
 111 1 3  -0.254391  22.068168   0.000000   6.508832   # C_3
 112 1 2  -0.274626  24.401127   0.197417   5.972257   # O_3
 113 1 3   0.105787  20.691093   0.000000   6.204907   # C_3
 114 1 3   0.022212  19.652907   0.000000   7.243093   # C_3
 115 1 4   0.076341  19.496910   0.000000   4.558872   # H_
 116 1 3  -0.150529  18.275832   0.000000   6.939168   # C_3
 117 1 4   0.096016  22.337128   0.000000   7.399090   # H_
 118 1 3  -0.138367  19.956832   0.000000   8.620168   # C_3
 119 1 3   0.100319  17.339851   0.000000   7.912803   # C_3
 120 1 4   0.053906  18.006872   0.000000   6.048910   # H_
 121 1 3   0.089952  18.983197   0.000000   9.556149   # C_3
 122 1 4   0.052276  20.847090   0.000000   8.889128   # H_
 123 1 3  -0.202201  17.657224   0.000000   9.238776   # C_3
 124 1 3   0.493675  16.600211   0.000000  10.295789   # C_3
 125 1 2  -0.067915  15.930501  26.816388   7.557776   # O_3
 126 1 4  -0.003189  19.227950   0.000000  10.451786   # H_
 127 1 2  -0.674676  15.381822   0.000000   9.881590   # O_3
 128 1 2  -0.666479  17.014410   0.000000  11.514178   # O_3
 129 1 3   0.029216  15.605059  25.460292   7.231259   # C_3
 130 1 3   0.166941  25.012473  25.839256   6.270533   # C_3
 131 1 3  -0.097131  14.861385  25.459216   5.807653   # C_3
 132 1 4   0.071712  15.095649  25.097196   8.170198   # H_
 133 1 4   0.055494  16.541040  24.845718   7.137392   # H_
 134 1 4   0.042929  14.564991  24.399244   5.568817   # H_
 135 1 3   0.041396  15.729857  25.882828   4.648974   # C_3
 136 1 4   0.097661  13.944500  26.042321   5.798509   # H_
 137 1 4  -0.064142  15.965197   0.082840   4.652201   # H_
 138 1 4   0.026392  15.246804  25.682452   3.715413   # H_
 139 1 3  -0.122150  24.859973  25.393858   7.740131   # C_3
 140 1 4   0.093622  26.100685  25.984495   6.099206   # H_
 141 1 4   0.057036  24.660404  25.019197   5.596520   # H_
 142 1 3   0.036512  25.050128  26.535863   8.727752   # C_3
 143 1 4   0.086139  25.594772  24.588054   7.969823   # H_
 144 1 4   0.081681  23.847069  24.974281   7.867887   # H_
 145 1 4  -0.010717  25.584282   0.500804   8.269444   # H_
 146 1 4   0.076951  24.075148  26.883897   9.115054   # H_
 147 1 4   0.038359  16.683858  25.251579   4.714331   # H_
 148 1 4   0.070447  25.649101  26.163622   9.580086   # H_
 149 1 2  -0.618923  23.329590   0.000000  24.962178   # O_3
 150 1 3   0.484149  23.743789   0.000000  23.743789   # C_3
 151 1 2  -0.617366  24.962178   0.000000  23.329590   # O_3
 152 1 3  -0.174773  22.686776   0.000000  22.686776   # C_3
 153 1 3   0.081016  21.360803   0.000000  23.004149   # C_3
 154 1 3   0.100612  23.004149   0.000000  21.360803   # C_3
 155 1 3  -0.122804  20.387168   0.000000  22.068168   # C_3
 156 1 4   0.007764  21.116050   0.000000  23.899786   # H_
 157 1 3  -0.131853  22.068168   0.000000  20.387168   # C_3
 158 1 2   0.005359  24.401127  26.698583  20.923474   # O_3
 159 1 3   0.018664  20.691093   0.000000  20.691093   # C_3
 160 1 3   0.116471  19.652907   0.000000  19.652907   # C_3
 161 1 4   0.052607  19.496910   0.000000  22.337128   # H_
 162 1 3  -0.262524  18.275832   0.000000  19.956832   # C_3
 163 1 4   0.062339  22.337128   0.000000  19.496910   # H_
 164 1 3  -0.224097  19.956832   0.000000  18.275832   # C_3
 165 1 3   0.268135  17.339851   0.000000  18.983197   # C_3
 166 1 4   0.104751  18.006872   0.000000  20.847090   # H_
 167 1 3   0.176234  18.983197   0.000000  17.339851   # C_3
 168 1 4   0.085605  20.847090   0.000000  18.006872   # H_
 169 1 3  -0.282773  17.657224   0.000000  17.657224   # C_3
 170 1 3   0.528361  16.600211   0.000000  16.600211   # C_3
 171 1 2  -0.242543  15.930501   0.079343  19.338224   # O_3
 172 1 4  -0.037237  19.227950   0.000000  16.444214   # H_
 173 1 2  -0.662223  15.381822   0.000000  17.014410   # O_3
 174 1 2  -0.675105  17.014410   0.000000  15.381822   # O_3
 175 1 3   0.005274  15.605059   1.435708  19.664741   # C_3
 176 1 3  -0.132137  25.012473   1.056744  20.625467   # C_3
 177 1 3   0.006084  14.861385   1.436784  21.088347   # C_3
 178 1 4   0.052455  15.095649   1.798804  18.725802   # H_
 179 1 4   0.033075  16.541040   2.050282  19.758608   # H_
 180 1 4   0.017967  14.564991   2.496756  21.327183   # H_
 181 1 3  -0.324583  15.729857   1.013172  22.247026   # C_3
 182 1 4  -0.005004  13.944500   0.853948  21.097491   # H_
 183 1 4   0.194227  15.965197  26.813160  22.243799   # H_
 184 1 4   0.077454  15.246804   1.213548  23.180587   # H_
 185 1 3   0.040847  24.859973   1.502142  19.155869   # C_3
 186 1 4   0.092462  26.100685   0.911505  20.796794   # H_
 187 1 4   0.097007  24.660404   1.876803  21.299480   # H_
 188 1 3  -0.338388  25.050128   0.360137  18.168248   # C_3
 189 1 4   0.041608  25.594772   2.307946  18.926177   # H_
 190 1 4   0.018793  23.847069   1.921719  19.028113   # H_
 191 1 4   0.221141  25.584282  26.395196  18.626556   # H_
 192 1 4   0.069978  24.075148   0.012103  17.780946   # H_
 193 1 4   0.081348  16.683858   1.644421  22.181669   # H_
 194 1 4   0.092985  25.649101   0.732378  17.315914   # H_
 195 1 2  -0.638343   3.566410   0.000000  24.962178   # O_3
 196 1 3   0.527926   3.152211   0.000000  23.743789   # C_3
 197 1 2  -0.674444   1.933822   0.000000  23.329590   # O_3
 198 1 3  -0.283812   4.209224   0.000000  22.686776   # C_3
 199 1 3   0.177253   5.535197   0.000000  23.004149   # C_3
 200 1 3   0.264299   3.891851   0.000000  21.360803   # C_3
 201 1 3  -0.223074   6.508832   0.000000  22.068168   # C_3
 202 1 4  -0.040888   5.779950   0.000000  23.899786   # H_
 203 1 3  -0.260938   4.827832   0.000000  20.387168   # C_3
 204 1 2  -0.308867   2.494873   0.197417  20.923474   # O_3
 205 1 3   0.108716   6.204907   0.000000  20.691093   # C_3
 206 1 3   0.020605   7.243093   0.000000  19.652907   # C_3
 207 1 4   0.080846   7.399090   0.000000  22.337128   # H_
 208 1 3  -0.149792   8.620168   0.000000  19.956832   # C_3
 209 1 4   0.094392   4.558872   0.000000  19.496910   # H_
 210 1 3  -0.137426   6.939168   0.000000  18.275832   # C_3
 211 1 3   0.101126   9.556149   0.000000  18.983197   # C_3
 212 1 4   0.055906   8.889128   0.000000  20.847090   # H_
 213 1 3   0.088506   7.912803   0.000000  17.339851   # C_3
 214 1 4   0.048929   6.048910   0.000000  18.006872   # H_
 215 1 3  -0.201925   9.238776   0.000000  17.657224   # C_3
 216 1 3   0.493605  10.295789   0.000000  16.600211   # C_3
 217 1 2  -0.067919  10.965499  26.816388  19.338224   # O_3
 218 1 4  -0.003442   7.668050   0.000000  16.444214   # H_
 219 1 2  -0.674374  11.514178   0.000000  17.014410   # O_3
 220 1 2  -0.666615   9.881590   0.000000  15.381822   # O_3
 221 1 3   0.027741  11.290941  25.460292  19.664741   # C_3
 222 1 3   0.189296   1.883527  25.839256  20.625467   # C_3
 223 1 3  -0.092781  12.034615  25.459216  21.088347   # C_3
 224 1 4   0.072054  11.800351  25.097196  18.725802   # H_
 225 1 4   0.056737  10.354960  24.845718  19.758608   # H_
 226 1 4   0.044898  12.331009  24.399244  21.327183   # H_
 227 1 3   0.032110  11.166143  25.882828  22.247026   # C_3
 228 1 4   0.098538  12.951500  26.042321  21.097491   # H_
 229 1 4  -0.053000  10.930803   0.082840  22.243799   # H_
 230 1 4   0.044646  11.649196  25.682452  23.180587   # H_
 231 1 3  -0.152893   2.036027  25.393858  19.155869   # C_3
 232 1 4   0.013512   0.795315  25.984495  20.796794   # H_
 233 1 4   0.030665   2.235596  25.019197  21.299480   # H_
 234 1 3   0.064199   1.845872  26.535863  18.168248   # C_3
 235 1 4   0.046151   1.301228  24.588054  18.926177   # H_
 236 1 4   0.082965   3.048931  24.974281  19.028113   # H_
 237 1 4  -0.080694   1.311449   0.500804  18.626556   # H_
 238 1 4   0.057596   2.820852  26.883897  17.780946   # H_
 239 1 4   0.045035  10.212142  25.251579  22.181669   # H_
 240 1 4   0.007887   1.246630  26.163622  17.315914   # H_
 241 1 2  -0.673836   1.933822   3.566410   0.000000   # O_3
 242 1 3   0.507120   3.152211   3.152211   0.000000   # C_3
 243 1 2  -0.675878   3.566410   1.933822   0.000000   # O_3
 244 1 3  -0.217566   4.209224   4.209224   0.000000   # C_3
 245 1 3   0.114460   3.891851   5.535197   0.000000   # C_3
 246 1 3   0.127540   5.535197   3.891851   0.000000   # C_3
 247 1 3  -0.166636   4.827832   6.508832   0.000000   # C_3
 248 1 4  -0.011791   2.996214   5.779950   0.000000   # H_
 249 1 3  -0.172669   6.508832   4.827832   0.000000   # C_3
 250 1 2  -0.039991   5.964457   2.495680  26.695894   # O_3
 251 1 3   0.059239   6.204907   6.204907   0.000000   # C_3
 252 1 3   0.047455   7.243093   7.243093   0.000000   # C_3
 253 1 4   0.067189   4.558872   7.399090   0.000000   # H_
 254 1 3  -0.158893   6.939168   8.620168   0.000000   # C_3
 255 1 4   0.073067   7.399090   4.558872   0.000000   # H_
 256 1 3  -0.154706   8.620168   6.939168   0.000000   # C_3
 257 1 3   0.111830   7.912803   9.556149   0.000000   # C_3
 258 1 4   0.063792   6.048910   8.889128   0.000000   # H_
 259 1 3   0.100616   9.556149   7.912803   0.000000   # C_3
 260 1 4   0.059140   8.889128   6.048910   0.000000   # H_
 261 1 3  -0.202039   9.238776   9.238776   0.000000   # C_3
 262 1 3   0.496729  10.295789  10.295789   0.000000   # C_3
 263 1 2  -0.018935   7.531956  10.981906  26.675184   # O_3
 264 1 4  -0.007400  10.451786   7.668050   0.000000   # H_
 265 1 2  -0.663475   9.881590  11.514178   0.000000   # O_3
 266 1 2  -0.662626  11.514178   9.881590   0.000000   # O_3
 267 1 3  -0.150475   6.373814  11.459579   0.498114   # C_3
 268 1 3  -0.102751   6.256548   1.888368   1.054323   # C_3
 269 1 3  -0.024376   5.310615  11.725849  26.258296   # C_3
 270 1 4   0.045195   6.695221  12.447200   0.988428   # H_
 271 1 4   0.049225   5.945361  10.728814   1.231030   # H_
 272 1 4   0.046947   5.384579  12.677430  25.789768   # H_
 273 1 3   0.151215   3.982491  11.841233  26.887393   # C_3
 274 1 4   0.068307   5.384579  10.952589  25.486650   # H_
 275 1 4  -0.002576   3.210038  12.091366  26.152595   # H_
 276 1 4  -0.074701   4.033324  12.625520   0.810645   # H_
 277 1 3   0.005483   7.737441   1.998642   1.456956   # C_3
 278 1 4   0.012280   6.039497   0.806611   0.927912   # H_
 279 1 4   0.063945   5.617768   2.278091   1.886485   # H_
 280 1 3  -0.305763   8.693594   1.755233   0.290208   # C_3
 281 1 4  -0.000476   7.962292   1.274064   2.272981   # H_
 282 1 4   0.018741   7.904734   3.015580   1.852596   # H_
 283 1 4   0.147367   8.189563   1.334848  26.288150   # H_
 284 1 4   0.049240   9.185522   2.703048   0.010489   # H_
 285 1 4  -0.082755   3.711917  10.899873   0.501879   # H_
 286 1 4   0.020043   9.478150   1.048406   0.622911   # H_
 287 1 2  -0.677719   1.933822  23.329590   0.000000   # O_3
 288 1 3   0.522166   3.152211  23.743789   0.000000   # C_3
 289 1 2  -0.617516   3.566410  24.962178   0.000000   # O_3
 290 1 3  -0.266310   4.209224  22.686776   0.000000   # C_3
 291 1 3   0.155588   3.891851  21.360803   0.000000   # C_3
 292 1 3   0.251084   5.535197  23.004149   0.000000   # C_3
 293 1 3  -0.196802   4.827832  20.387168   0.000000   # C_3
 294 1 4  -0.036207   2.996214  21.116050   0.000000   # H_
 295 1 3  -0.235459   6.508832  22.068168   0.000000   # C_3
 296 1 2  -0.267062   5.964457  24.400320   0.200106   # O_3
 297 1 3   0.079538   6.204907  20.691093   0.000000   # C_3
 298 1 3   0.077156   7.243093  19.652907   0.000000   # C_3
 299 1 4   0.070153   4.558872  19.496910   0.000000   # H_
 300 1 3  -0.238059   6.939168  18.275832   0.000000   # C_3
 301 1 4   0.091559   7.399090  22.337128   0.000000   # H_
 302 1 3  -0.189301   8.620168  19.956832   0.000000   # C_3
 303 1 3   0.250275   7.912803  17.339851   0.000000   # C_3
 304 1 4   0.087881   6.048910  18.006872   0.000000   # H_
 305 1 3   0.148597   9.556149  18.983197   0.000000   # C_3
 306 1 4   0.072946   8.889128  20.847090   0.000000   # H_
 307 1 3  -0.261348   9.238776  17.657224   0.000000   # C_3
 308 1 3   0.522644  10.295789  16.600211   0.000000   # C_3
 309 1 2  -0.289926   7.531956  15.914094   0.220816   # O_3
 310 1 4  -0.017715  10.451786  19.227950   0.000000   # H_
 311 1 2  -0.654810   9.881590  15.381822   0.000000   # O_3
 312 1 2  -0.666257  11.514178  17.014410   0.000000   # O_3
 313 1 3   0.209776   6.373814  15.436421  26.397886   # C_3
 314 1 3   0.158716   6.256548  25.007632  25.841677   # C_3
 315 1 3  -0.108460   5.310615  15.170151   0.637704   # C_3
 316 1 4   0.029018   6.695221  14.448800  25.907572   # H_
 317 1 4   0.016446   5.945361  16.167186  25.664970   # H_
 318 1 4   0.040424   5.384579  14.218570   1.106232   # H_
 319 1 3  -0.418073   3.982491  15.054767   0.008607   # C_3
 320 1 4   0.049018   5.384579  15.943411   1.409350   # H_
 321 1 4   0.074651   3.210038  14.804634   0.743405   # H_
 322 1 4   0.153561   4.033324  14.270480  26.085624   # H_
 323 1 3  -0.116154   7.737441  24.897358  25.438775   # C_3
 324 1 4   0.095327   6.039497  26.089389  25.968088   # H_
 325 1 4   0.057342   5.617768  24.617909  25.009515   # H_
 326 1 3   0.023093   8.693594  25.140767  26.605792   # C_3
 327 1 4   0.086948   7.962292  25.621936  24.623019   # H_
 328 1 4   0.080974   7.904734  23.880420  25.043404   # H_
 329 1 4   0.002255   8.189563  25.561152   0.607850   # H_
 330 1 4   0.073540   9.185522  24.192952  26.885511   # H_
 331 1 4   0.176516   3.711917  15.996127  26.394121   # H_
 332 1 4   0.077736   9.478150  25.847594  26.273089   # H_
 333 1 2  -0.612276  24.962178  23.329590   0.000000   # O_3
 334 1 3   0.488490  23.743789  23.743789   0.000000   # C_3
 335 1 2  -0.612704  23.329590  24.962178   0.000000   # O_3
 336 1 3  -0.185620  22.686776  22.686776   0.000000   # C_3
 337 1 3   0.099817  23.004149  21.360803   0.000000   # C_3
 338 1 3   0.120492  21.360803  23.004149   0.000000   # C_3
 339 1 3  -0.147218  22.068168  20.387168   0.000000   # C_3
 340 1 4   0.006738  23.899786  21.116050   0.000000   # H_
 341 1 3  -0.156173  20.387168  22.068168   0.000000   # C_3
 342 1 2  -0.009624  20.931543  24.400320  26.695894   # O_3
 343 1 3   0.053018  20.691093  20.691093   0.000000   # C_3
 344 1 3   0.057649  19.652907  19.652907   0.000000   # C_3
 345 1 4   0.065537  22.337128  19.496910   0.000000   # H_
 346 1 3  -0.163490  19.956832  18.275832   0.000000   # C_3
 347 1 4   0.072942  19.496910  22.337128   0.000000   # H_
 348 1 3  -0.159286  18.275832  19.956832   0.000000   # C_3
 349 1 3   0.117947  18.983197  17.339851   0.000000   # C_3
 350 1 4   0.068424  20.847090  18.006872   0.000000   # H_
 351 1 3   0.107056  17.339851  18.983197   0.000000   # C_3
 352 1 4   0.065098  18.006872  20.847090   0.000000   # H_
 353 1 3  -0.205013  17.657224  17.657224   0.000000   # C_3
 354 1 3   0.498366  16.600211  16.600211   0.000000   # C_3
 355 1 2  -0.022030  19.364044  15.914094  26.675184   # O_3
 356 1 4  -0.008187  16.444214  19.227950   0.000000   # H_
 357 1 2  -0.663201  17.014410  15.381822   0.000000   # O_3
 358 1 2  -0.662489  15.381822  17.014410   0.000000   # O_3
 359 1 3  -0.148488  20.522186  15.436421   0.498114   # C_3
 360 1 3  -0.120456  20.639452  25.007632   1.054323   # C_3
 361 1 3  -0.021164  21.585385  15.170151  26.258296   # C_3
 362 1 4   0.045494  20.200779  14.448800   0.988428   # H_
 363 1 4   0.050377  20.950639  16.167186   1.231030   # H_
 364 1 4   0.047729  21.511421  14.218570  25.789768   # H_
 365 1 3   0.135739  22.913509  15.054767  26.887393   # C_3
 366 1 4   0.072503  21.511421  15.943411  25.486650   # H_
 367 1 4   0.023381  23.685962  14.804634  26.152595   # H_
 368 1 4  -0.061898  22.862676  14.270480   0.810645   # H_
 369 1 3   0.034328  19.158559  24.897358   1.456956   # C_3
 370 1 4   0.096097  20.856503  26.089389   0.927912   # H_
 371 1 4   0.094682  21.278232  24.617909   1.886485   # H_
 372 1 3  -0.324742  18.202406  25.140767   0.290208   # C_3
 373 1 4   0.046970  18.933708  25.621936   2.272981   # H_
 374 1 4   0.021010  18.991266  23.880420   1.852596   # H_
 375 1 4   0.211663  18.706437  25.561152  26.288150   # H_
 376 1 4   0.069743  17.710478  24.192952   0.010489   # H_
 377 1 4  -0.066601  23.184083  15.996127   0.501879   # H_
 378 1 4   0.094918  17.417850  25.847594   0.622911   # H_
 379 1 2  -0.627388  24.962178   3.566410   0.000000   # O_3
 380 1 3   0.523223  23.743789   3.152211   0.000000   # C_3
 381 1 2  -0.670134  23.329590   1.933822   0.000000   # O_3
 382 1 3  -0.268267  22.686776   4.209224   0.000000   # C_3
 383 1 3   0.157505  23.004149   5.535197   0.000000   # C_3
 384 1 3   0.254045  21.360803   3.891851   0.000000   # C_3
 385 1 3  -0.196676  22.068168   6.508832   0.000000   # C_3
 386 1 4  -0.026055  23.899786   5.779950   0.000000   # H_
 387 1 3  -0.240961  20.387168   4.827832   0.000000   # C_3
 388 1 2  -0.301484  20.931543   2.495680   0.200106   # O_3
 389 1 3   0.080687  20.691093   6.204907   0.000000   # C_3
 390 1 3   0.075483  19.652907   7.243093   0.000000   # C_3
 391 1 4   0.073332  22.337128   7.399090   0.000000   # H_
 392 1 3  -0.237164  19.956832   8.620168   0.000000   # C_3
 393 1 4   0.089509  19.496910   4.558872   0.000000   # H_
 394 1 3  -0.188543  18.275832   6.939168   0.000000   # C_3
 395 1 3   0.249906  18.983197   9.556149   0.000000   # C_3
 396 1 4   0.089147  20.847090   8.889128   0.000000   # H_
 397 1 3   0.146920  17.339851   7.912803   0.000000   # C_3
 398 1 4   0.069504  18.006872   6.048910   0.000000   # H_
 399 1 3  -0.260821  17.657224   9.238776   0.000000   # C_3
 400 1 3   0.522374  16.600211  10.295789   0.000000   # C_3
 401 1 2  -0.288561  19.364044  10.981906   0.220816   # O_3
 402 1 4  -0.018074  16.444214   7.668050   0.000000   # H_
 403 1 2  -0.654636  17.014410  11.514178   0.000000   # O_3
 404 1 2  -0.666424  15.381822   9.881590   0.000000   # O_3
 405 1 3   0.206635  20.522186  11.459579  26.397886   # C_3
 406 1 3   0.181299  20.639452   1.888368  25.841677   # C_3
 407 1 3  -0.104807  21.585385  11.725849   0.637704   # C_3
 408 1 4   0.029555  20.200779  12.447200  25.907572   # H_
 409 1 4   0.017791  20.950639  10.728814  25.664970   # H_
 410 1 4   0.041334  21.511421  12.677430   1.106232   # H_
 411 1 3  -0.420865  22.913509  11.841233   0.008607   # C_3
 412 1 4   0.052719  21.511421  10.952589   1.409350   # H_
 413 1 4   0.098959  23.685962  12.091366   0.743405   # H_
 414 1 4   0.161361  22.862676  12.625520  26.085624   # H_
 415 1 3  -0.148571  19.158559   1.998642  25.438775   # C_3
 416 1 4   0.011472  20.856503   0.806611  25.968088   # H_
 417 1 4   0.030182  21.278232   2.278091  25.009515   # H_
 418 1 3   0.051628  18.202406   1.755233  26.605792   # C_3
 419 1 4   0.041562  18.933708   1.274064  24.623019   # H_
 420 1 4   0.081109  18.991266   3.015580  25.043404   # H_
 421 1 4  -0.068628  18.706437   1.334848   0.607850   # H_
 422 1 4   0.052872  17.710478   2.703048  26.885511   # H_
 423 1 4   0.186822  23.184083  10.899873  26.394121   # H_
 424 1 4   0.002298  17.417850   1.048406  26.273089   # H_
 425 1 2  -0.675910   0.000000   1.933822   3.566410   # O_3
 426 1 3   0.504712   0.000000   3.152211   3.152211   # C_3
 427 1 2  -0.674693   0.000000   3.566410   1.933822   # O_3
 428 1 3  -0.211508   0.000000   4.209224   4.209224   # C_3
 429 1 3   0.107898   0.000000   3.891851   5.535197   # C_3
 430 1 3   0.115976   0.000000   5.535197   3.891851   # C_3
 431 1 3  -0.160974   0.000000   4.827832   6.508832   # C_3
 432 1 4  -0.009846   0.000000   2.996214   5.779950   # H_
 433 1 3  -0.162756   0.000000   6.508832   4.827832   # C_3
 434 1 2  -0.028279  26.756679   5.995118   2.492452   # O_3
 435 1 3   0.052409   0.000000   6.204907   6.204907   # C_3
 436 1 3   0.050649   0.000000   7.243093   7.243093   # C_3
 437 1 4   0.065002   0.000000   4.558872   7.399090   # H_
 438 1 3  -0.163407   0.000000   6.939168   8.620168   # C_3
 439 1 4   0.061948   0.000000   7.399090   4.558872   # H_
 440 1 3  -0.157857   0.000000   8.620168   6.939168   # C_3
 441 1 3   0.113367   0.000000   7.912803   9.556149   # C_3
 442 1 4   0.070133   0.000000   6.048910   8.889128   # H_
 443 1 3   0.102707   0.000000   9.556149   7.912803   # C_3
 444 1 4   0.061519   0.000000   8.889128   6.048910   # H_
 445 1 3  -0.208364   0.000000   9.238776   9.238776   # C_3
 446 1 3   0.496522   0.000000  10.295789  10.295789   # C_3
 447 1 2  -0.019068  26.752106   7.511246  10.991857   # O_3
 448 1 4  -0.006685   0.000000  10.451786   7.668050   # H_
 449 1 2  -0.668769   0.000000   9.881590  11.514178   # O_3
 450 1 2  -0.666417   0.000000  11.514178   9.881590   # O_3
 451 1 3  -0.110031   1.107039   7.235024  11.549949   # C_3
 452 1 3  -0.132789   1.075033   6.522549   1.970939   # C_3
 453 1 3  -0.013318   1.763571   5.902596  11.050222   # C_3
 454 1 4   0.038873   0.989773   7.181232  12.634127   # H_
 455 1 4   0.069532   1.819514   8.054545  11.344195   # H_
 456 1 4   0.011641   2.311711   5.398296  11.875122   # H_
 457 1 3  -0.166234   2.795570   6.164025   9.996167   # C_3
 458 1 4   0.004134   0.979821   5.209217  10.667492   # H_
 459 1 4   0.069113   2.575561   7.118026   9.498053   # H_
 460 1 4   0.050758   2.829728   5.327291   9.183908   # H_
 461 1 3   0.069276   1.403433   7.985691   2.410420   # C_3
 462 1 4   0.018789   0.957498   6.524701   0.863362   # H_
 463 1 4   0.067984   1.928443   5.854183   2.226451   # H_
 464 1 3  -0.507824   0.264657   8.991602   2.215424   # C_3
 465 1 4  -0.008994   2.249581   8.330498   1.779170   # H_
 466 1 4   0.002710   1.759267   8.013663   3.455598   # H_
 467 1 4   0.193890  26.792181   8.985954   1.172128   # H_
 468 1 4   0.218226  26.320426   8.768634   2.899927   # H_
 469 1 4   0.063010   3.760868   6.241755  10.463620   # H_
 470 1 4   0.089810   0.659221   9.998857   2.449688   # H_
 471 1 2  -0.682801   0.000000   1.933822  23.329590   # O_3
 472 1 3   0.523746   0.000000   3.152211  23.743789   # C_3
 473 1 2  -0.616048   0.000000   3.566410  24.962178   # O_3
 474 1 3  -0.270317   0.000000   4.209224  22.686776   # C_3
 475 1 3   0.157210   0.000000   3.891851  21.360803   # C_3
 476 1 3   0.258143   0.000000   5.535197  23.004149   # C_3
 477 1 3  -0.200306   0.000000   4.827832  20.387168   # C_3
 478 1 4  -0.039961   0.000000   2.996214  21.116050   # H_
 479 1 3  -0.241722   0.000000   6.508832  22.068168   # C_3
 480 1 2  -0.271692   0.139321   5.995118  24.403817   # O_3
 481 1 3   0.078394   0.000000   6.204907  20.691093   # C_3
 482 1 3   0.075426   0.000000   7.243093  19.652907   # C_3
 483 1 4   0.067045   0.000000   4.558872  19.496910   # H_
 484 1 3  -0.242851   0.000000   6.939168  18.275832   # C_3
 485 1 4   0.095505   0.000000   7.399090  22.337128   # H_
 486 1 3  -0.201488   0.000000   8.620168  19.956832   # C_3
 487 1 3   0.243130   0.000000   7.912803  17.339851   # C_3
 488 1 4   0.086268   0.000000   6.048910  18.006872   # H_
 489 1 3   0.155203   0.000000   9.556149  18.983197   # C_3