 (written by mofun)

1448 atoms
0 bonds
0 angles
0 dihedrals
0 impropers

4 atom types
   0.000000  26.896000 xlo xhi
   0.000000  26.896000 ylo yhi
   0.000000  26.896000 zlo zhi

Masses

 1 91.2240   # Zr3+4
 2 15.9994   # O_3
 3 12.0107   # C_3
 4 1.0079   # H_

Pair Coeffs

 1   0.069000   2.783168 # Zr3+4
 2   0.060000   3.118146 # O_3
 3   0.105000   3.430851 # C_3
 4   0.044000   2.571134 # H_

Atoms

 1 1 1   3.192250   2.475508   0.000000   0.000000   # Zr3+4
 2 1 1   3.191900  24.420492   0.000000   0.000000   # Zr3+4
 3 1 1   3.193160   0.000000   2.475508   0.000000   # Zr3+4
 4 1 1   3.192750   0.000000  24.420492   0.000000   # Zr3+4
 5 1 1   3.193280   0.000000   0.000000   2.475508   # Zr3+4
 6 1 1   3.192850   0.000000   0.000000  24.420492   # Zr3+4
 7 1 1   3.215330   2.475508  13.448000  13.448000   # Zr3+4
 8 1 1   3.214440  24.420492  13.448000  13.448000   # Zr3+4
 9 1 1   3.204710   0.000000  15.923508  13.448000   # Zr3+4
 10 1 1   3.204680   0.000000  10.972492  13.448000   # Zr3+4
 11 1 1   3.204610   0.000000  13.448000  15.923508   # Zr3+4
 12 1 1   3.204570   0.000000  13.448000  10.972492   # Zr3+4
 13 1 1   3.204020  15.923508   0.000000  13.448000   # Zr3+4
 14 1 1   3.203990  10.972492   0.000000  13.448000   # Zr3+4
 15 1 1   3.215220  13.448000   2.475508  13.448000   # Zr3+4
 16 1 1   3.214280  13.448000  24.420492  13.448000   # Zr3+4
 17 1 1   3.203980  13.448000   0.000000  15.923508   # Zr3+4
 18 1 1   3.203940  13.448000   0.000000  10.972492   # Zr3+4
 19 1 1   3.203690  15.923508  13.448000   0.000000   # Zr3+4
 20 1 1   3.203650  10.972492  13.448000   0.000000   # Zr3+4
 21 1 1   3.203690  13.448000  15.923508   0.000000   # Zr3+4
 22 1 1   3.203660  13.448000  10.972492   0.000000   # Zr3+4
 23 1 1   3.215220  13.448000  13.448000   2.475508   # Zr3+4
 24 1 1   3.214250  13.448000  13.448000  24.420492   # Zr3+4
 25 1 2  -1.311980   1.221078   1.221078   1.221078   # O_3
 26 1 2  -1.161050  25.674922  25.674922   1.221078   # O_3
 27 1 2  -1.158980  25.674922   1.221078  25.674922   # O_3
 28 1 2  -1.153870   1.221078  25.674922  25.674922   # O_3
 29 1 2  -1.234620   1.221078   1.221078  25.674922   # O_3
 30 1 2  -1.093670  25.674922  25.674922  25.674922   # O_3
 31 1 2  -1.237050   1.221078  25.674922   1.221078   # O_3
 32 1 2  -1.241560  25.674922   1.221078   1.221078   # O_3
 33 1 2  -1.266160   1.221078  14.669078  14.669078   # O_3
 34 1 2  -1.192710  25.674922  12.226922  14.669078   # O_3
 35 1 2  -1.192680  25.674922  14.669078  12.226922   # O_3
 36 1 2  -1.266210   1.221078  12.226922  12.226922   # O_3
 37 1 2  -1.269040   1.221078  14.669078  12.226922   # O_3
 38 1 2  -1.196130  25.674922  12.226922  12.226922   # O_3
 39 1 2  -1.269040   1.221078  12.226922  14.669078   # O_3
 40 1 2  -1.196720  25.674922  14.669078  14.669078   # O_3
 41 1 2  -1.268220  14.669078   1.221078  14.669078   # O_3
 42 1 2  -1.189450  12.226922  25.674922  14.669078   # O_3
 43 1 2  -1.268280  12.226922   1.221078  12.226922   # O_3
 44 1 2  -1.189440  14.669078  25.674922  12.226922   # O_3
 45 1 2  -1.270140  14.669078   1.221078  12.226922   # O_3
 46 1 2  -1.191260  12.226922  25.674922  12.226922   # O_3
 47 1 2  -1.191850  14.669078  25.674922  14.669078   # O_3
 48 1 2  -1.270140  12.226922   1.221078  14.669078   # O_3
 49 1 2  -1.268730  14.669078  14.669078   1.221078   # O_3
 50 1 2  -1.268770  12.226922  12.226922   1.221078   # O_3
 51 1 2  -1.188410  12.226922  14.669078  25.674922   # O_3
 52 1 2  -1.188430  14.669078  12.226922  25.674922   # O_3
 53 1 2  -1.189760  14.669078  14.669078  25.674922   # O_3
 54 1 2  -1.189150  12.226922  12.226922  25.674922   # O_3
 55 1 2  -1.270290  14.669078  12.226922   1.221078   # O_3
 56 1 2  -1.270300  12.226922  14.669078   1.221078   # O_3
 57 1 2  -0.689683   3.566410   0.000000   1.933822   # O_3
 58 1 3   0.533661   3.152211   0.000000   3.152211   # C_3
 59 1 2  -0.676271   1.933822   0.000000   3.566410   # O_3
 60 1 3  -0.292815   4.209224   0.000000   4.209224   # C_3
 61 1 3   0.169101   5.535197   0.000000   3.891851   # C_3
 62 1 3   0.260468   3.891851   0.000000   5.535197   # C_3
 63 1 3  -0.227130   6.508832   0.000000   4.827832   # C_3
 64 1 4  -0.046294   5.779950   0.000000   2.996214   # H_
 65 1 3  -0.265339   4.827832   0.000000   6.508832   # C_3
 66 1 2  -0.308830   2.524459   0.337814   5.903672   # O_3
 67 1 3   0.101508   6.204907   0.000000   6.204907   # C_3
 68 1 3   0.018081   7.243093   0.000000   7.243093   # C_3
 69 1 4   0.074105   7.399090   0.000000   4.558872   # H_
 70 1 3  -0.155245   8.620168   0.000000   6.939168   # C_3
 71 1 4   0.086809   4.558872   0.000000   7.399090   # H_
 72 1 3  -0.138525   6.939168   0.000000   8.620168   # C_3
 73 1 3   0.116668   9.556149   0.000000   7.912803   # C_3
 74 1 4   0.051357   8.889128   0.000000   6.048910   # H_
 75 1 3   0.083965   7.912803   0.000000   9.556149   # C_3
 76 1 4   0.043826   6.048910   0.000000   8.889128   # H_
 77 1 3  -0.199807   9.238776   0.000000   9.238776   # C_3
 78 1 3   0.494542  10.295789   0.000000  10.295789   # C_3
 79 1 2  -0.093924  10.988092  26.891428   7.496991   # O_3
 80 1 4   0.000226   7.668050   0.000000  10.451786   # H_
 81 1 2  -0.661365  11.514178   0.000000   9.881590   # O_3
 82 1 2  -0.659643   9.881590   0.000000  11.514178   # O_3
 83 1 3   0.117082  11.348767  26.256144   6.282368   # C_3
 84 1 3   0.185522   1.859858  26.022687   6.194687   # C_3
 85 1 3  -0.146153  11.648389   0.521244   5.314112   # C_3
 86 1 4   0.029854  10.521177  25.543131   5.862252   # H_
 87 1 4   0.033873  12.314334  25.725217   6.435406   # H_
 88 1 4   0.063640  11.311920   1.436784   5.724276   # H_
 89 1 3  -0.324909  11.049684   0.247443   3.850700   # C_3
 90 1 4   0.022482  12.713739   0.668635   5.166453   # H_
 91 1 4   0.162764  10.128227  26.521070   3.938650   # H_
 92 1 4   0.160997  11.760276  26.571903   3.238009   # H_
 93 1 3   0.009222  10.821337   1.534955   3.000518   # C_3
 94 1 3  -0.143762   2.012628  25.840870   7.668856   # C_3
 95 1 4   0.023032   2.215155  25.151794   5.588451   # H_
 96 1 4   0.011112   0.767612  26.180566   5.981132   # H_
 97 1 3  -0.029329   2.509935  24.485312   8.004250   # C_3
 98 1 4   0.053340   1.000531  25.928282   8.116944   # H_
 99 1 4   0.104722   2.629891  26.609827   8.143840   # H_
 100 1 4   0.025267   1.771908  23.766650   7.534376   # H_
 101 1 4   0.023662   2.499714  24.349218   9.102144   # H_
 102 1 3  -0.056676   3.874100  24.077568   7.490536   # C_3
 103 1 4   0.008037  11.701105   2.081750   2.982766   # H_
 104 1 3  -0.152560  10.365987   1.208706   1.601119   # C_3
 105 1 4   0.019290  10.011498   2.133391   3.569099   # H_
 106 1 4   0.058110   3.979801  24.152339   6.371393   # H_
 107 1 3  -0.140453   4.200886  22.651273   7.888059   # C_3
 108 1 4   0.062144   4.658387  24.705052   7.944809   # H_
 109 1 4   0.054029   3.475501  21.950632   7.426524   # H_
 110 1 4   0.051844   4.217293  22.550413   8.996174   # H_
 111 1 4   0.054170   5.222396  22.408402   7.481391   # H_
 112 1 4  -0.014556  11.285831   0.955615   1.015055   # H_
 113 1 4   0.013425   9.819730   2.109991   1.096819   # H_
 114 1 4  -0.007176   9.675567   0.373854   1.541948   # H_
 115 1 2  -0.670205  23.329590   0.000000   1.933822   # O_3
 116 1 3   0.495213  23.743789   0.000000   3.152211   # C_3
 117 1 2  -0.623904  24.962178   0.000000   3.566410   # O_3
 118 1 3  -0.197692  22.686776   0.000000   4.209224   # C_3
 119 1 3   0.089918  21.360803   0.000000   3.891851   # C_3
 120 1 3   0.117424  23.004149   0.000000   5.535197   # C_3
 121 1 3  -0.140593  20.387168   0.000000   4.827832   # C_3
 122 1 4  -0.002452  21.116050   0.000000   2.996214   # H_
 123 1 3  -0.150559  22.068168   0.000000   6.508832   # C_3
 124 1 2  -0.021105  24.371541  26.557917   5.903941   # O_3
 125 1 3   0.024912  20.691093   0.000000   6.204907   # C_3
 126 1 3   0.105082  19.652907   0.000000   7.243093   # C_3
 127 1 4   0.056389  19.496910   0.000000   4.558872   # H_
 128 1 3  -0.255296  18.275832   0.000000   6.939168   # C_3
 129 1 4   0.065249  22.337128   0.000000   7.399090   # H_
 130 1 3  -0.220304  19.956832   0.000000   8.620168   # C_3
 131 1 3   0.256677  17.339851   0.000000   7.912803   # C_3
 132 1 4   0.102256  18.006872   0.000000   6.048910   # H_
 133 1 3   0.164556  18.983197   0.000000   9.556149   # C_3
 134 1 4   0.078111  20.847090   0.000000   8.889128   # H_
 135 1 3  -0.273026  17.657224   0.000000   9.238776   # C_3
 136 1 3   0.524217  16.600211   0.000000  10.295789   # C_3
 137 1 2  -0.236166  15.907908   0.004572   7.496991   # O_3
 138 1 4  -0.038009  19.227950   0.000000  10.451786   # H_
 139 1 2  -0.653781  15.381822   0.000000   9.881590   # O_3
 140 1 2  -0.667849  17.014410   0.000000  11.514178   # O_3
 141 1 3  -0.007362  15.547233   0.639856   6.282368   # C_3
 142 1 3  -0.082007  25.035873   0.873313   6.194956   # C_3
 143 1 3  -0.076898  15.247611  26.374756   5.314112   # C_3
 144 1 4   0.017865  16.374823   1.352869   5.862252   # H_
 145 1 4   0.020135  14.581666   1.170783   6.435406   # H_
 146 1 4   0.085833  15.584080  25.459216   5.724276   # H_
 147 1 3   0.210311  15.846316  26.648288   3.850700   # C_3
 148 1 4   0.074413  14.182261  26.227365   5.166453   # H_
 149 1 4  -0.089268  16.767773   0.374930   3.938650   # H_
 150 1 4  -0.108688  15.135724   0.323828   3.237740   # H_
 151 1 3  -0.123237  16.074663  25.361045   3.000518   # C_3
 152 1 3  -0.038246  24.882834   1.055937   7.669125   # C_3
 153 1 4   0.078819  24.680845   1.743937   5.588182   # H_
 154 1 4   0.071631  26.128657   0.715434   5.981670   # H_
 155 1 3  -0.086789  24.385527   2.411764   8.003712   # C_3
 156 1 4   0.035006  25.894393   0.968794   8.117751   # H_
 157 1 4   0.011383  24.265302   0.287249   8.144378   # H_
 158 1 4   0.068949  25.122747   3.130156   7.532494   # H_
 159 1 4   0.038617  24.396286   2.549203   9.101606   # H_
 160 1 3  -0.024749  23.020824   2.818432   7.490805   # C_3
 161 1 4   0.053421  15.194895  24.814250   2.982766   # H_
 162 1 3  -0.096502  16.530013  25.687294   1.601119   # C_3
 163 1 4   0.065293  16.884502  24.762609   3.569368   # H_
 164 1 4   0.037484  22.914585   2.743661   6.371662   # H_
 165 1 3  -0.157033  22.692693   4.244458   7.888597   # C_3
 166 1 4   0.028342  22.237075   2.190410   7.945347   # H_
 167 1 4   0.073048  23.413775   4.946174   7.421682   # H_
 168 1 4   0.058935  22.682473   4.346663   8.996712   # H_
 169 1 4   0.054188  21.668224   4.484370   7.487846   # H_
 170 1 4   0.033928  15.610169  25.940923   1.015324   # H_
 171 1 4   0.020012  17.076001  24.786009   1.096819   # H_
 172 1 4   0.072678  17.220702  26.521877   1.542217   # H_
 173 1 2  -0.633030  23.329590   0.000000  24.962178   # O_3
 174 1 3   0.515476  23.743789   0.000000  23.743789   # C_3
 175 1 2  -0.623217  24.962178   0.000000  23.329590   # O_3
 176 1 3  -0.263808  22.686776   0.000000  22.686776   # C_3
 177 1 3   0.153910  21.360803   0.000000  23.004149   # C_3
 178 1 3   0.246757  23.004149   0.000000  21.360803   # C_3
 179 1 3  -0.209752  20.387168   0.000000  22.068168   # C_3
 180 1 4  -0.031799  21.116050   0.000000  23.899786   # H_
 181 1 3  -0.248612  22.068168   0.000000  20.387168   # C_3
 182 1 2  -0.273090  24.371541   0.337814  20.992328   # O_3
 183 1 3   0.092593  20.691093   0.000000  20.691093   # C_3
 184 1 3   0.026256  19.652907   0.000000  19.652907   # C_3
 185 1 4   0.071448  19.496910   0.000000  22.337128   # H_
 186 1 3  -0.160263  18.275832   0.000000  19.956832   # C_3
 187 1 4   0.084188  22.337128   0.000000  19.496910   # H_
 188 1 3  -0.143615  19.956832   0.000000  18.275832   # C_3
 189 1 3   0.121768  17.339851   0.000000  18.983197   # C_3
 190 1 4   0.054871  18.006872   0.000000  20.847090   # H_
 191 1 3   0.088863  18.983197   0.000000  17.339851   # C_3
 192 1 4   0.047184  20.847090   0.000000  18.006872   # H_
 193 1 3  -0.202958  17.657224   0.000000  17.657224   # C_3
 194 1 3   0.495761  16.600211   0.000000  16.600211   # C_3
 195 1 2  -0.096629  15.907908  26.891428  19.399009   # O_3
 196 1 4  -0.001208  19.227950   0.000000  16.444214   # H_
 197 1 2  -0.661220  15.381822   0.000000  17.014410   # O_3
 198 1 2  -0.659746  17.014410   0.000000  15.381822   # O_3
 199 1 3   0.115013  15.547233  26.256144  20.613632   # C_3
 200 1 3   0.166967  25.036142  26.022687  20.701313   # C_3
 201 1 3  -0.143561  15.247611   0.521244  21.581888   # C_3
 202 1 4   0.029816  16.374823  25.543131  21.033748   # H_
 203 1 4   0.034208  14.581666  25.725217  20.460594   # H_
 204 1 4   0.064300  15.584080   1.436784  21.171724   # H_
 205 1 3  -0.324291  15.846316   0.247443  23.045300   # C_3
 206 1 4   0.024017  14.182261   0.668635  21.729547   # H_
 207 1 4   0.162945  16.767773  26.521070  22.957350   # H_
 208 1 4   0.169561  15.135724  26.571903  23.657991   # H_
 209 1 3   0.024491  16.074663   1.534955  23.895482   # C_3
 210 1 3  -0.134640  24.883372  25.840870  19.227144   # C_3
 211 1 4   0.045094  24.681114  25.151794  21.307818   # H_
 212 1 4   0.082144  26.128388  26.180566  20.914868   # H_
 213 1 3  -0.036026  24.386065  24.485312  18.891750   # C_3
 214 1 4   0.101777  25.895469  25.928282  18.779056   # H_
 215 1 4   0.109987  24.266109  26.609827  18.752160   # H_
 216 1 4   0.056055  25.124092  23.766650  19.361624   # H_
 217 1 4   0.028762  24.396286  24.349218  17.793856   # H_
 218 1 3  -0.049744  23.021900  24.077837  19.405464   # C_3
 219 1 4   0.012778  15.194895   2.081750  23.913503   # H_
 220 1 3  -0.178517  16.530013   1.208706  25.294881   # C_3
 221 1 4   0.022637  16.884502   2.133391  23.326901   # H_
 222 1 4   0.060975  22.916199  24.152339  20.524607   # H_
 223 1 3  -0.146302  22.695114  22.651273  19.007941   # C_3
 224 1 4   0.059228  22.237613  24.705052  18.951191   # H_
 225 1 4   0.070859  23.420499  21.950632  19.469476   # H_
 226 1 4   0.057978  22.678707  22.550413  17.899826   # H_
 227 1 4   0.057465  21.673604  22.408402  19.414609   # H_
 228 1 4   0.055855  15.610169   0.955615  25.880945   # H_
 229 1 4   0.080554  17.076270   2.109991  25.799181   # H_
 230 1 4   0.037537  17.220433   0.373854  25.353783   # H_
 231 1 2  -0.623439   3.566410   0.000000  24.962178   # O_3
 232 1 3   0.495586   3.152211   0.000000  23.743789   # C_3
 233 1 2  -0.666990   1.933822   0.000000  23.329590   # O_3
 234 1 3  -0.199722   4.209224   0.000000  22.686776   # C_3
 235 1 3   0.093274   5.535197   0.000000  23.004149   # C_3
 236 1 3   0.121448   3.891851   0.000000  21.360803   # C_3
 237 1 3  -0.141639   6.508832   0.000000  22.068168   # C_3
 238 1 4   0.003050   5.779950   0.000000  23.899786   # H_
 239 1 3  -0.155216   4.827832   0.000000  20.387168   # C_3
 240 1 2  -0.046858   2.524459  26.557917  20.992059   # O_3
 241 1 3   0.026986   6.204907   0.000000  20.691093   # C_3
 242 1 3   0.104000   7.243093   0.000000  19.652907   # C_3
 243 1 4   0.058832   7.399090   0.000000  22.337128   # H_
 244 1 3  -0.254516   8.620168   0.000000  19.956832   # C_3
 245 1 4   0.065255   4.558872   0.000000  19.496910   # H_
 246 1 3  -0.219741   6.939168   0.000000  18.275832   # C_3
 247 1 3   0.256446   9.556149   0.000000  18.983197   # C_3
 248 1 4   0.102677   8.889128   0.000000  20.847090   # H_
 249 1 3   0.163900   7.912803   0.000000  17.339851   # C_3
 250 1 4   0.077117   6.048910   0.000000  18.006872   # H_
 251 1 3  -0.272756   9.238776   0.000000  17.657224   # C_3
 252 1 3   0.524090  10.295789   0.000000  16.600211   # C_3
 253 1 2  -0.235801  10.988092   0.004572  19.399009   # O_3
 254 1 4  -0.038095   7.668050   0.000000  16.444214   # H_
 255 1 2  -0.653663  11.514178   0.000000  17.014410   # O_3
 256 1 2  -0.667980   9.881590   0.000000  15.381822   # O_3
 257 1 3  -0.007497  11.348767   0.639856  20.613632   # C_3
 258 1 3  -0.072535   1.859858   0.873313  20.701044   # C_3
 259 1 3  -0.074095  11.648389  26.374756  21.581888   # C_3
 260 1 4   0.018593  10.521177   1.352869  21.033748   # H_
 261 1 4   0.020831  12.314334   1.170783  20.460594   # H_
 262 1 4   0.085546  11.311920  25.459216  21.171724   # H_
 263 1 3   0.197854  11.049684  26.648288  23.045300   # C_3
 264 1 4   0.074520  12.713739  26.227365  21.729547   # H_
 265 1 4  -0.082812  10.128227   0.374930  22.957350   # H_
 266 1 4  -0.093272  11.760276   0.323828  23.658260   # H_
 267 1 3  -0.104511  10.821337  25.361045  23.895482   # C_3
 268 1 3  -0.044499   2.013166   1.055937  19.226875   # C_3
 269 1 4   0.059241   2.215155   1.743937  21.307818   # H_
 270 1 4  -0.001025   0.767343   0.715434  20.914330   # H_
 271 1 3  -0.081425   2.510742   2.411764  18.892288   # C_3
 272 1 4  -0.015882   1.001338   0.968794  18.778249   # H_
 273 1 4   0.003442   2.630698   0.287249  18.751622   # H_
 274 1 4   0.037605   1.773253   3.130156  19.363506   # H_
 275 1 4   0.033482   2.499714   2.549203  17.794394   # H_
 276 1 3  -0.031809   3.875176   2.818432  19.405195   # C_3
 277 1 4   0.056733  11.701105  24.814250  23.913503   # H_
 278 1 3  -0.123720  10.365987  25.687294  25.294881   # C_3
 279 1 4   0.066607  10.011498  24.762609  23.326632   # H_
 280 1 4   0.036434   3.981415   2.743661  20.524338   # H_
 281 1 3  -0.151154   4.203307   4.244458  19.007403   # C_3
 282 1 4   0.030223   4.658656   2.190410  18.950653   # H_
 283 1 4   0.056867   3.481956   4.946174  19.474318   # H_
 284 1 4   0.052311   4.213258   4.346394  17.899288   # H_
 285 1 4   0.051624   5.227776   4.484370  19.407885   # H_
 286 1 4   0.102785  11.285831  25.940923  25.880676   # H_
 287 1 4   0.085747   9.819999  24.786009  25.799181   # H_
 288 1 4   0.115481   9.675298  26.521877  25.353783   # H_
 289 1 2  -0.685375   1.933822   3.566410   0.000000   # O_3
 290 1 3   0.537893   3.152211   3.152211   0.000000   # C_3
 291 1 2  -0.679529   3.566410   1.933822   0.000000   # O_3
 292 1 3  -0.303316   4.209224   4.209224   0.000000   # C_3
 293 1 3   0.186106   3.891851   5.535197   0.000000   # C_3
 294 1 3   0.278418   5.535197   3.891851   0.000000   # C_3
 295 1 3  -0.238994   4.827832   6.508832   0.000000   # C_3
 296 1 4  -0.050372   2.996214   5.779950   0.000000   # H_
 297 1 3  -0.280317   6.508832   4.827832   0.000000   # C_3
 298 1 2  -0.311774   5.958809   2.501328   0.158686   # O_3
 299 1 3   0.116697   6.204907   6.204907   0.000000   # C_3
 300 1 3  -0.000906   7.243093   7.243093   0.000000   # C_3
 301 1 4   0.078810   4.558872   7.399090   0.000000   # H_
 302 1 3  -0.123799   6.939168   8.620168   0.000000   # C_3
 303 1 4   0.099761   7.399090   4.558872   0.000000   # H_
 304 1 3  -0.120550   8.620168   6.939168   0.000000   # C_3
 305 1 3   0.084354   7.912803   9.556149   0.000000   # C_3
 306 1 4   0.042376   6.048910   8.889128   0.000000   # H_
 307 1 3   0.064789   9.556149   7.912803   0.000000   # C_3
 308 1 4   0.035309   8.889128   6.048910   0.000000   # H_
 309 1 3  -0.181325   9.238776   9.238776   0.000000   # C_3
 310 1 3   0.487548  10.295789  10.295789   0.000000   # C_3
 311 1 2   0.005306   7.526846  10.967920  26.889545   # O_3
 312 1 4   0.005021  10.451786   7.668050   0.000000   # H_
 313 1 2  -0.661746   9.881590  11.514178   0.000000   # O_3
 314 1 2  -0.659540  11.514178   9.881590   0.000000   # O_3
 315 1 3  -0.212304   6.211631  11.229080   0.472832   # C_3
 316 1 3   0.164478   6.146543   1.825432  25.814512   # C_3
 317 1 3  -0.025107   5.915775  10.936452   1.997566   # C_3
 318 1 4   0.152254   5.395876  10.825909  26.707728   # H_
 319 1 4   0.037264   6.111578  12.337464   0.384344   # H_
 320 1 4   0.044813   6.811950  10.551570   2.506976   # H_
 321 1 3  -0.098015   4.669952  10.038125   2.204934   # C_3
 322 1 4   0.022440   5.673173  11.929183   2.425750   # H_
 323 1 4   0.040078   4.902603   9.002091   1.909347   # H_
 324 1 4   0.007359   3.789646  10.419779   1.629898   # H_
 325 1 3  -0.016776   4.272161  10.105634   3.661621   # C_3
 326 1 3  -0.120625   7.517163   2.069647  25.097464   # C_3
 327 1 4   0.039994   5.251982   1.960449  25.157174   # H_
 328 1 4   0.016500   6.173170   0.749592  26.102568   # H_
 329 1 3  -0.045441   7.326739   2.692290  23.661218   # C_3
 330 1 4   0.033299   8.005863   1.073150  24.918606   # H_
 331 1 4   0.082043   8.225335   2.647911  25.696707   # H_
 332 1 4   0.043429   6.300388   2.466901  23.290591   # H_
 333 1 4   0.028472   8.070683   2.218651  22.965150   # H_
 334 1 3  -0.057450   7.526308   4.228858  23.544220   # C_3
 335 1 4   0.014970   3.219989   9.762979   3.659470   # H_
 336 1 3  -0.166330   5.017180   9.169922   4.611588   # C_3
 337 1 4   0.019851   4.299864  11.151620   4.064255   # H_
 338 1 4   0.070815   6.745248   4.735579  24.147229   # H_
 339 1 3  -0.140087   7.493226   4.639022  22.014914   # C_3
 340 1 4   0.044778   8.503439   4.515838  23.935288   # H_
 341 1 4   0.053876   6.521204   4.356076  21.532131   # H_
 342 1 4   0.053583   8.318933   4.080661  21.520834   # H_
 343 1 4   0.057555   7.678539   5.719972  21.847621   # H_
 344 1 4   0.065376   4.354462   8.988643   5.477908   # H_
 345 1 4   0.068395   5.964188   9.604562   4.965540   # H_
 346 1 4   0.066105   5.232348   8.188487   4.127460   # H_
 347 1 2  -0.666241   1.933822  23.329590   0.000000   # O_3
 348 1 3   0.491601   3.152211  23.743789   0.000000   # C_3
 349 1 2  -0.623916   3.566410  24.962178   0.000000   # O_3
 350 1 3  -0.189511   4.209224  22.686776   0.000000   # C_3
 351 1 3   0.081360   3.891851  21.360803   0.000000   # C_3
 352 1 3   0.107187   5.535197  23.004149   0.000000   # C_3
 353 1 3  -0.129647   4.827832  20.387168   0.000000   # C_3
 354 1 4   0.001253   2.996214  21.116050   0.000000   # H_
 355 1 3  -0.137850   6.508832  22.068168   0.000000   # C_3
 356 1 2  -0.015542   5.958809  24.394672  26.737314   # O_3
 357 1 3   0.008506   6.204907  20.691093   0.000000   # C_3
 358 1 3   0.123443   7.243093  19.652907   0.000000   # C_3
 359 1 4   0.048074   4.558872  19.496910   0.000000   # H_
 360 1 3  -0.291824   6.939168  18.275832   0.000000   # C_3
 361 1 4   0.057841   7.399090  22.337128   0.000000   # H_
 362 1 3  -0.243887   8.620168  19.956832   0.000000   # C_3
 363 1 3   0.293683   7.912803  17.339851   0.000000   # C_3
 364 1 4   0.107458   6.048910  18.006872   0.000000   # H_
 365 1 3   0.188330   9.556149  18.983197   0.000000   # C_3
 366 1 4   0.084872   8.889128  20.847090   0.000000   # H_
 367 1 3  -0.298539   9.238776  17.657224   0.000000   # C_3
 368 1 3   0.532966  10.295789  16.600211   0.000000   # C_3
 369 1 2  -0.331223   7.526846  15.928080   0.006455   # O_3
 370 1 4  -0.051414  10.451786  19.227950   0.000000   # H_
 371 1 2  -0.655398   9.881590  15.381822   0.000000   # O_3
 372 1 2  -0.672616  11.514178  17.014410   0.000000   # O_3
 373 1 3   0.302278   6.211631  15.666920  26.423168   # C_3
 374 1 3  -0.089029   6.146812  25.070568   1.081488   # C_3
 375 1 3  -0.151887   5.915775  15.959548  24.898434   # C_3
 376 1 4  -0.107649   5.395876  16.070091   0.188272   # H_
 377 1 4   0.017729   6.111578  14.558536  26.511656   # H_
 378 1 4   0.096821   6.811950  16.344430  24.389024   # H_
 379 1 3  -0.045921   4.669952  16.857875  24.691066   # C_3
 380 1 4   0.064225   5.673173  14.966817  24.470250   # H_
 381 1 4   0.072585   4.902603  17.893909  24.986653   # H_
 382 1 4   0.055104   3.789646  16.476221  25.266102   # H_
 383 1 3  -0.030065   4.272161  16.790366  23.234379   # C_3
 384 1 3  -0.045277   7.517163  24.826622   1.798536   # C_3
 385 1 4   0.091084   5.251982  24.935820   1.738826   # H_
 386 1 4   0.075986   6.173439  26.146408   0.793163   # H_
 387 1 3  -0.079123   7.326739  24.203710   3.234782   # C_3
 388 1 4   0.055368   8.005863  25.822850   1.977394   # H_
 389 1 4   0.020944   8.225335  24.248089   1.199293   # H_
 390 1 4   0.071792   6.300388  24.429099   3.605140   # H_
 391 1 4   0.057503   8.070414  24.677349   3.930850   # H_
 392 1 3  -0.040374   7.526308  22.667142   3.351780   # C_3
 393 1 4   0.029795   3.219989  17.133021  23.236530   # H_
 394 1 3  -0.163688   5.017180  17.726078  22.284412   # C_3
 395 1 4   0.027945   4.299864  15.744380  22.831745   # H_
 396 1 4   0.040889   6.745248  22.160421   2.748771   # H_
 397 1 3  -0.149924   7.493226  22.256978   4.881086   # C_3
 398 1 4   0.031138   8.503708  22.380431   2.960712   # H_
 399 1 4   0.060915   6.521204  22.539924   5.363869   # H_
 400 1 4   0.063763   8.318933  22.815339   5.375166   # H_
 401 1 4   0.055232   7.678808  21.176028   5.048648   # H_
 402 1 4   0.069765   4.354462  17.907357  21.418092   # H_
 403 1 4   0.073040   5.964188  17.291438  21.930460   # H_
 404 1 4   0.082060   5.232348  18.707513  22.768809   # H_
 405 1 2  -0.631166  24.962178  23.329590   0.000000   # O_3
 406 1 3   0.519060  23.743789  23.743789   0.000000   # C_3
 407 1 2  -0.623581  23.329590  24.962178   0.000000   # O_3
 408 1 3  -0.273314  22.686776  22.686776   0.000000   # C_3
 409 1 3   0.169357  23.004149  21.360803   0.000000   # C_3
 410 1 3   0.265301  21.360803  23.004149   0.000000   # C_3
 411 1 3  -0.220533  22.068168  20.387168   0.000000   # C_3
 412 1 4  -0.034719  23.899786  21.116050   0.000000   # H_
 413 1 3  -0.263024  20.387168  22.068168   0.000000   # C_3
 414 1 2  -0.273393  20.937191  24.394672   0.158686   # O_3
 415 1 3   0.107058  20.691093  20.691093   0.000000   # C_3
 416 1 3   0.007687  19.652907  19.652907   0.000000   # C_3
 417 1 4   0.074905  22.337128  19.496910   0.000000   # H_
 418 1 3  -0.130016  19.956832  18.275832   0.000000   # C_3
 419 1 4   0.098213  19.496910  22.337128   0.000000   # H_
 420 1 3  -0.126356  18.275832  19.956832   0.000000   # C_3
 421 1 3   0.090088  18.983197  17.339851   0.000000   # C_3
 422 1 4   0.045624  20.847090  18.006872   0.000000   # H_
 423 1 3   0.070215  17.339851  18.983197   0.000000   # C_3
 424 1 4   0.039156  18.006872  20.847090   0.000000   # H_
 425 1 3  -0.185102  17.657224  17.657224   0.000000   # C_3
 426 1 3   0.488914  16.600211  16.600211   0.000000   # C_3
 427 1 2   0.000241  19.369154  15.928080  26.889545   # O_3
 428 1 4   0.003369  16.444214  19.227950   0.000000   # H_
 429 1 2  -0.661617  17.014410  15.381822   0.000000   # O_3
 430 1 2  -0.659721  15.381822  17.014410   0.000000   # O_3
 431 1 3  -0.206496  20.684369  15.666920   0.472832   # C_3
 432 1 3   0.144104  20.749188  25.070568  25.814512   # C_3
 433 1 3  -0.026799  20.980225  15.959548   1.997566   # C_3
 434 1 4   0.149909  21.500124  16.070091  26.707728   # H_
 435 1 4   0.038380  20.784422  14.558536   0.384344   # H_
 436 1 4   0.045732  20.084050  16.344430   2.506976   # H_
 437 1 3  -0.096083  22.226048  16.857875   2.204934   # C_3
 438 1 4   0.025366  21.223096  14.966817   2.425750   # H_
 439 1 4   0.043353  21.993397  17.893909   1.909347   # H_
 440 1 4   0.017223  23.106354  16.476221   1.629898   # H_
 441 1 3  -0.018365  22.623839  16.790366   3.661621   # C_3
 442 1 3  -0.110167  19.378837  24.826622  25.097733   # C_3
 443 1 4   0.068415  21.644018  24.935820  25.157174   # H_
 444 1 4   0.092776  20.722830  26.146408  26.102568   # H_
 445 1 3  -0.049359  19.569261  24.203710  23.661218   # C_3
 446 1 4   0.087045  18.889868  25.822850  24.918606   # H_
 447 1 4   0.089278  18.670934  24.248089  25.696707   # H_
 448 1 4   0.067062  20.595612  24.429099  23.290591   # H_
 449 1 4   0.050009  18.825586  24.677349  22.965150   # H_
 450 1 3  -0.052857  19.369692  22.667142  23.544220   # C_3
 451 1 4   0.040728  23.676011  17.133021   3.659470   # H_
 452 1 3  -0.168003  21.879089  17.726078   4.611588   # C_3
 453 1 4   0.030595  22.595868  15.744380   4.064255   # H_
 454 1 4   0.069929  20.150752  22.160421  24.147229   # H_
 455 1 3  -0.143575  19.402505  22.256978  22.014914   # C_3
 456 1 4   0.043935  18.392292  22.380431  23.935288   # H_
 457 1 4   0.062461  20.374796  22.539924  21.532131   # H_
 458 1 4   0.062382  18.577067  22.815339  21.520834   # H_
 459 1 4   0.059362  19.217192  21.176028  21.847621   # H_
 460 1 4   0.083644  22.541538  17.907357   5.477908   # H_
 461 1 4   0.072504  20.931812  17.291438   4.965540   # H_
 462 1 4   0.076046  21.663652  18.707513   4.127460   # H_
 463 1 2  -0.622198  24.962178   3.566410   0.000000   # O_3
 464 1 3   0.493049  23.743789   3.152211   0.000000   # C_3
 465 1 2  -0.670304  23.329590   1.933822   0.000000   # O_3
 466 1 3  -0.191004  22.686776   4.209224   0.000000   # C_3
 467 1 3   0.083255  23.004149   5.535197   0.000000   # C_3
 468 1 3   0.109686  21.360803   3.891851   0.000000   # C_3
 469 1 3  -0.129792  22.068168   6.508832   0.000000   # C_3
 470 1 4   0.007870  23.899786   5.779950   0.000000   # H_
 471 1 3  -0.141975  20.387168   4.827832   0.000000   # C_3
 472 1 2  -0.044722  20.937191   2.501328  26.737314   # O_3
 473 1 3   0.009699  20.691093   6.204907   0.000000   # C_3
 474 1 3   0.122220  19.652907   7.243093   0.000000   # C_3
 475 1 4   0.049552  22.337128   7.399090   0.000000   # H_
 476 1 3  -0.291062  19.956832   8.620168   0.000000   # C_3
 477 1 4   0.056036  19.496910   4.558872   0.000000   # H_
 478 1 3  -0.243295  18.275832   6.939168   0.000000   # C_3
 479 1 3   0.293077  18.983197   9.556149   0.000000   # C_3
 480 1 4   0.107622  20.847090   8.889128   0.000000   # H_
 481 1 3   0.187511  17.339851   7.912803   0.000000   # C_3
 482 1 4   0.083599  18.006872   6.048910   0.000000   # H_
 483 1 3  -0.298152  17.657224   9.238776   0.000000   # C_3
 484 1 3   0.532762  16.600211  10.295789   0.000000   # C_3
 485 1 2  -0.329905  19.369154  10.967920   0.006455   # O_3
 486 1 4  -0.051459  16.444214   7.668050   0.000000   # H_
 487 1 2  -0.655238  17.014410  11.514178   0.000000   # O_3
 488 1 2  -0.672731  15.381822   9.881590   0.000000   # O_3
 489 1 3   0.299531  20.684369  11.229080  26.423168   # C_3