 (written by mofun)

432 atoms
0 bonds
0 angles
0 dihedrals
0 impropers

4 atom types
   0.000000  20.700400 xlo xhi
   0.000000  20.700400 ylo yhi
   0.000000  20.700400 zlo zhi

Masses

 1 91.2240   # Zr3+4
 2 15.9994   # O_3
 3 12.0107   # C_3
 4 18.9984   # F_

Pair Coeffs

 1   0.069000   2.783168 # Zr3+4
 2   0.060000   3.118146 # O_3
 3   0.105000   3.430851 # C_3
 4   0.050000   2.996983 # F_

Atoms

 1 1 1   3.166010   2.481771   0.000000   0.000000   # Zr3+4
 2 1 1   3.193390   2.481771  10.350200  10.350200   # Zr3+4
 3 1 1   3.177760  12.831971   0.000000  10.350200   # Zr3+4
 4 1 1   3.180680  12.831971  10.350200   0.000000   # Zr3+4
 5 1 1   3.164650  18.218629   0.000000   0.000000   # Zr3+4
 6 1 1   3.194290  18.218629  10.350200  10.350200   # Zr3+4
 7 1 1   3.180310   7.868429   0.000000  10.350200   # Zr3+4
 8 1 1   3.177820   7.868429  10.350200   0.000000   # Zr3+4
 9 1 1   3.165760   0.000000   2.481771   0.000000   # Zr3+4
 10 1 1   3.145670   0.000000  12.831971  10.350200   # Zr3+4
 11 1 1   3.193410  10.350200   2.481771  10.350200   # Zr3+4
 12 1 1   3.180680  10.350200  12.831971   0.000000   # Zr3+4
 13 1 1   3.164440   0.000000  18.218629   0.000000   # Zr3+4
 14 1 1   3.211900   0.000000   7.868429  10.350200   # Zr3+4
 15 1 1   3.194270  10.350200  18.218629  10.350200   # Zr3+4
 16 1 1   3.177830  10.350200   7.868429   0.000000   # Zr3+4
 17 1 1   3.197060   0.000000   0.000000   2.481771   # Zr3+4
 18 1 1   3.177500   0.000000  10.350200  12.831971   # Zr3+4
 19 1 1   3.146150  10.350200   0.000000  12.831971   # Zr3+4
 20 1 1   3.193920  10.350200  10.350200   2.481771   # Zr3+4
 21 1 1   3.134480   0.000000   0.000000  18.218629   # Zr3+4
 22 1 1   3.180020   0.000000  10.350200   7.868429   # Zr3+4
 23 1 1   3.212120  10.350200   0.000000   7.868429   # Zr3+4
 24 1 1   3.194880  10.350200  10.350200  18.218629   # Zr3+4
 25 1 2  -1.313290   1.161292   9.188908   9.188908   # O_3
 26 1 2  -1.201420  11.511492  19.539108   9.188908   # O_3
 27 1 2  -1.302380  11.511492   9.188908  19.539108   # O_3
 28 1 2  -1.312760   9.188908   1.161292   9.188908   # O_3
 29 1 2  -1.302490   9.188908  11.511492  19.539108   # O_3
 30 1 2  -1.153880  19.539108  19.539108   1.161292   # O_3
 31 1 2  -1.200260  19.539108   9.188908  11.511492   # O_3
 32 1 2  -1.376770   1.161292   1.161292   1.161292   # O_3
 33 1 2  -1.415950  11.511492  11.511492   1.161292   # O_3
 34 1 2  -1.346040  19.539108   1.161292   1.161292   # O_3
 35 1 2  -1.421370  19.539108  11.511492  11.511492   # O_3
 36 1 2  -1.534190   9.188908   1.161292  11.511492   # O_3
 37 1 2  -1.426030   9.188908  11.511492   1.161292   # O_3
 38 1 2  -1.347880   1.161292  19.539108   1.161292   # O_3
 39 1 2  -1.408380   1.161292   9.188908  11.511492   # O_3
 40 1 2  -1.422650  11.511492  19.539108  11.511492   # O_3
 41 1 2  -1.425980  11.511492   9.188908   1.161292   # O_3
 42 1 2  -1.246110  19.539108  19.539108  19.539108   # O_3
 43 1 2  -1.283850  19.539108   9.188908   9.188908   # O_3
 44 1 2  -1.285250   9.188908  19.539108   9.188908   # O_3
 45 1 2  -1.312550   9.188908   9.188908  19.539108   # O_3
 46 1 2  -1.466650   1.161292   1.161292  19.539108   # O_3
 47 1 2  -1.534770   1.161292  11.511492   9.188908   # O_3
 48 1 2  -1.407680  11.511492   1.161292   9.188908   # O_3
 49 1 3   0.598775   3.179581   0.000000  17.520819   # C_3
 50 1 2  -0.662392   3.528590   0.000000  18.727859   # O_3
 51 1 2  -0.720088   1.972541   0.000000  17.171810   # O_3
 52 1 3  -0.251480   4.243582   0.000000  16.456818   # C_3
 53 1 3   0.312162   3.816533   0.000000  15.162836   # C_3
 54 1 4  -0.370634   2.439128   0.000000  14.807203   # F_
 55 1 4  -0.156843   4.471079  20.700400  12.742545   # F_
 56 1 3   0.163946   4.812636   0.000000  14.167768   # C_3
 57 1 3  -0.239894   6.106618   0.000000  14.593782   # C_3
 58 1 3   0.290364   6.532632   0.000000  15.887764   # C_3
 59 1 3   0.195472   5.537564   0.000000  16.883867   # C_3
 60 1 4  -0.127665   5.893404  20.700400  18.261272   # F_
 61 1 4  -0.328683   7.958062   0.000000  16.229114   # F_
 62 1 2  -0.713663   8.377452   0.000000  13.878790   # O_3
 63 1 3   0.594326   7.170619   0.000000  13.529781   # C_3
 64 1 2  -0.724029   6.821610   0.000000  12.322741   # O_3
 65 1 3   0.626505   3.179581  10.350200   7.170619   # C_3
 66 1 2  -0.583697   3.528590  10.350200   8.377659   # O_3
 67 1 2  -0.597842   1.972541  10.350200   6.821610   # O_3
 68 1 3  -0.269043   4.243582  10.350200   6.106618   # C_3
 69 1 3   0.311790   3.816533  10.350200   4.812636   # C_3
 70 1 4  -0.335411   2.439128  10.350407   4.456796   # F_
 71 1 4  -0.317186   4.471079  10.349993   2.392345   # F_
 72 1 3   0.277945   4.812636  10.350200   3.817568   # C_3
 73 1 3  -0.246071   6.106618  10.350200   4.243582   # C_3
 74 1 3   0.281696   6.532632  10.350200   5.537564   # C_3
 75 1 3   0.315053   5.537564  10.350200   6.533667   # C_3
 76 1 4  -0.308620   5.893404  10.350407   7.911072   # F_
 77 1 4  -0.297039   7.958062  10.349993   5.879121   # F_
 78 1 2  -0.663869   8.377452  10.350200   3.528590   # O_3
 79 1 3   0.607713   7.170619  10.350200   3.179581   # C_3
 80 1 2  -0.674228   6.821610  10.350200   1.972541   # O_3
 81 1 3   0.624102  13.529781   0.000000   7.170619   # C_3
 82 1 2  -0.633376  13.878790   0.000000   8.377659   # O_3
 83 1 2  -0.624897  12.322741   0.000000   6.821610   # O_3
 84 1 3  -0.299872  14.593782   0.000000   6.106618   # C_3
 85 1 3   0.315081  14.166733   0.000000   4.812636   # C_3
 86 1 4  -0.348689  12.789328   0.000000   4.456796   # F_
 87 1 4  -0.344334  14.821072   0.000000   2.392138   # F_
 88 1 3   0.246988  15.162629   0.000000   3.817568   # C_3
 89 1 3  -0.204008  16.456611   0.000000   4.243582   # C_3
 90 1 3   0.161031  16.882832   0.000000   5.537564   # C_3
 91 1 3   0.343070  15.887764   0.000000   6.533667   # C_3
 92 1 4  -0.339365  16.243811   0.000000   7.911072   # F_
 93 1 4  -0.097867  18.308262  20.700400   5.879121   # F_
 94 1 2  -0.564843  18.727652   0.000000   3.528590   # O_3
 95 1 3   0.587344  17.520612   0.000000   3.179581   # C_3
 96 1 2  -0.629995  17.171603   0.000000   1.972541   # O_3
 97 1 3   0.608338  13.529781  10.350200  17.520819   # C_3
 98 1 2  -0.591865  13.878790  10.350200  18.727859   # O_3
 99 1 2  -0.650562  12.322741  10.350200  17.171810   # O_3
 100 1 3  -0.254125  14.593782  10.350200  16.456818   # C_3
 101 1 3   0.317494  14.166733  10.350200  15.162836   # C_3
 102 1 4  -0.306431  12.789328  10.350200  14.806996   # F_
 103 1 4  -0.293513  14.821279  10.350200  12.742338   # F_
 104 1 3   0.286751  15.162629  10.350200  14.167768   # C_3
 105 1 3  -0.226090  16.456611  10.350200  14.593782   # C_3
 106 1 3   0.301218  16.882832  10.350200  15.887764   # C_3
 107 1 3   0.330251  15.887764  10.350200  16.883867   # C_3
 108 1 4  -0.254238  16.243604  10.350200  18.261065   # F_
 109 1 4  -0.233043  18.308469  10.350200  16.229114   # F_
 110 1 2  -0.509476  18.727652  10.350200  13.878790   # O_3
 111 1 3   0.608492  17.520612  10.350200  13.529781   # C_3
 112 1 2  -0.571087  17.171603  10.350200  12.322741   # O_3
 113 1 3   0.602148  17.520819   0.000000  17.520819   # C_3
 114 1 2  -0.634294  17.171810   0.000000  18.727859   # O_3
 115 1 2  -0.643836  18.727859   0.000000  17.171810   # O_3
 116 1 3  -0.259283  16.456818   0.000000  16.456818   # C_3
 117 1 3   0.307910  16.883867   0.000000  15.162836   # C_3
 118 1 4  -0.298074  18.261272   0.000000  14.807203   # F_
 119 1 4  -0.314139  16.229114   0.000000  12.742131   # F_
 120 1 3   0.280017  15.887971   0.000000  14.167768   # C_3
 121 1 3  -0.262709  14.593989   0.000000  14.593782   # C_3
 122 1 3   0.279750  14.167768   0.000000  15.887764   # C_3
 123 1 3   0.307224  15.162836   0.000000  16.883867   # C_3
 124 1 4  -0.299105  14.807203   0.000000  18.260858   # F_
 125 1 4  -0.315589  12.742338   0.000000  16.229114   # F_
 126 1 2  -0.722371  12.322948   0.000000  13.878790   # O_3
 127 1 3   0.608828  13.529988   0.000000  13.529781   # C_3
 128 1 2  -0.712497  13.878997   0.000000  12.322741   # O_3
 129 1 3   0.606520  17.520819  10.350200   7.170619   # C_3
 130 1 2  -0.652673  17.171810  10.350200   8.377659   # O_3
 131 1 2  -0.596891  18.727859  10.350200   6.821610   # O_3
 132 1 3  -0.254159  16.456818  10.350200   6.106618   # C_3
 133 1 3   0.318432  16.883867  10.350200   4.812636   # C_3
 134 1 4  -0.275845  18.261272  10.350407   4.456796   # F_
 135 1 4  -0.302899  16.229321  10.350200   2.391724   # F_
 136 1 3   0.290920  15.887971  10.350200   3.817568   # C_3
 137 1 3  -0.244194  14.593989  10.350200   4.243582   # C_3
 138 1 3   0.287626  14.167768  10.350200   5.537564   # C_3
 139 1 3   0.313115  15.162836  10.350200   6.533667   # C_3
 140 1 4  -0.307069  14.806996  10.350407   7.910658   # F_
 141 1 4  -0.295683  12.742131  10.349993   5.879121   # F_
 142 1 2  -0.580133  12.322948  10.350200   3.528590   # O_3
 143 1 3   0.619606  13.529988  10.350200   3.179581   # C_3
 144 1 2  -0.591456  13.878997  10.350200   1.972541   # O_3
 145 1 3   0.617050   7.170619   0.000000   7.170619   # C_3
 146 1 2  -0.635194   6.821610   0.000000   8.377659   # O_3
 147 1 2  -0.624092   8.377659   0.000000   6.821610   # O_3
 148 1 3  -0.282292   6.106618   0.000000   6.106618   # C_3
 149 1 3   0.295961   6.533667   0.000000   4.812636   # C_3
 150 1 4  -0.348666   7.911072   0.000000   4.456796   # F_
 151 1 4  -0.360282   5.879121   0.000000   2.391724   # F_
 152 1 3   0.266464   5.537564   0.000000   3.817568   # C_3
 153 1 3  -0.263946   4.243582   0.000000   4.243582   # C_3
 154 1 3   0.268152   3.817568   0.000000   5.537564   # C_3
 155 1 3   0.297797   4.812636   0.000000   6.533667   # C_3
 156 1 4  -0.348982   4.456796   0.000000   7.910865   # F_
 157 1 4  -0.342600   2.392138   0.000000   5.879121   # F_
 158 1 2  -0.630830   1.972748   0.000000   3.528590   # O_3
 159 1 3   0.618287   3.179581   0.000000   3.179581   # C_3
 160 1 2  -0.649599   3.528590   0.000000   1.972541   # O_3
 161 1 3   0.614219   7.170619  10.350200  17.520819   # C_3
 162 1 2  -0.514457   6.821610  10.350200  18.727859   # O_3
 163 1 2  -0.574304   8.377659  10.350200  17.171810   # O_3
 164 1 3  -0.249585   6.106618  10.350200  16.456818   # C_3
 165 1 3   0.312904   6.533667  10.350200  15.162836   # C_3
 166 1 4  -0.306419   7.911072  10.350200  14.806996   # F_
 167 1 4  -0.296698   5.879121  10.350407  12.742131   # F_
 168 1 3   0.286595   5.537564  10.350200  14.167768   # C_3
 169 1 3  -0.247330   4.243582  10.350200  14.593782   # C_3
 170 1 3   0.291252   3.817568  10.350200  15.887764   # C_3
 171 1 3   0.319452   4.812636  10.350200  16.883867   # C_3
 172 1 4  -0.267047   4.456796  10.350200  18.261065   # F_
 173 1 4  -0.295093   2.392138  10.350407  16.229321   # F_
 174 1 2  -0.672808   1.972748  10.350200  13.878790   # O_3
 175 1 3   0.609729   3.179581  10.350200  13.529781   # C_3
 176 1 2  -0.665125   3.528590  10.350200  12.322741   # O_3
 177 1 3   0.568770  17.520819   3.179581   0.000000   # C_3
 178 1 2  -0.654002  18.727859   3.528590   0.000000   # O_3
 179 1 2  -0.718079  17.171810   1.972541   0.000000   # O_3
 180 1 3  -0.182102  16.456818   4.243582   0.000000   # C_3
 181 1 3   0.148478  15.162836   3.816533   0.000000   # C_3
 182 1 4  -0.158465  14.806996   2.439128  20.700193   # F_
 183 1 4  -0.351276  12.742338   4.471079   0.000207   # F_
 184 1 3   0.320774  14.167768   4.812636   0.000000   # C_3
 185 1 3  -0.297436  14.593782   6.106618   0.000000   # C_3
 186 1 3   0.327492  15.887764   6.532632   0.000000   # C_3
 187 1 3   0.157005  16.883867   5.537564   0.000000   # C_3
 188 1 4  -0.112900  18.261065   5.893404  20.700193   # F_
 189 1 4  -0.334958  16.229114   7.958062   0.000000   # F_
 190 1 2  -0.634113  13.878790   8.377452   0.000000   # O_3
 191 1 3   0.625298  13.529781   7.170619   0.000000   # C_3
 192 1 2  -0.635929  12.322741   6.821610   0.000000   # O_3
 193 1 3   0.612069  17.520819  13.529781  10.350200   # C_3
 194 1 2  -0.604117  18.727859  13.878790  10.350200   # O_3
 195 1 2  -0.652187  17.171810  12.322741  10.350200   # O_3
 196 1 3  -0.255116  16.456818  14.593782  10.350200   # C_3
 197 1 3   0.318084  15.162836  14.166733  10.350200   # C_3
 198 1 4  -0.306445  14.806996  12.789328  10.349993   # F_
 199 1 4  -0.293524  12.742338  14.821279  10.350407   # F_
 200 1 3   0.286734  14.167768  15.162629  10.350200   # C_3
 201 1 3  -0.226003  14.593782  16.456611  10.350200   # C_3
 202 1 3   0.301790  15.887764  16.882832  10.350200   # C_3
 203 1 3   0.331680  16.883867  15.887764  10.350200   # C_3
 204 1 4  -0.252508  18.261272  16.243604  10.349993   # F_
 205 1 4  -0.231864  16.229114  18.308469  10.350200   # F_
 206 1 2  -0.510221  13.878790  18.727652  10.350200   # O_3
 207 1 3   0.608758  13.529781  17.520612  10.350200   # C_3
 208 1 2  -0.571198  12.322741  17.171603  10.350200   # O_3
 209 1 3   0.626565   7.170619   3.179581  10.350200   # C_3
 210 1 2  -0.583657   8.377659   3.528590  10.350200   # O_3
 211 1 2  -0.597059   6.821610   1.972541  10.350200   # O_3
 212 1 3  -0.268850   6.106618   4.243582  10.350200   # C_3
 213 1 3   0.313071   4.812636   3.816533  10.350200   # C_3
 214 1 4  -0.332967   4.456589   2.439128  10.350200   # F_
 215 1 4  -0.313716   2.392138   4.470872  10.350200   # F_
 216 1 3   0.279016   3.817568   4.812636  10.350200   # C_3
 217 1 3  -0.241059   4.243582   6.106618  10.350200   # C_3
 218 1 3   0.282218   5.537564   6.532632  10.350200   # C_3
 219 1 3   0.315563   6.533667   5.537564  10.350200   # C_3
 220 1 4  -0.308543   7.911072   5.893611  10.350200   # F_
 221 1 4  -0.296149   5.879121   7.958269  10.350200   # F_
 222 1 2  -0.580318   3.528590   8.377452  10.350200   # O_3
 223 1 3   0.613822   3.179581   7.170619  10.350200   # C_3
 224 1 2  -0.579791   1.972541   6.821610  10.350200   # O_3
 225 1 3   0.633025   7.170619  13.529781   0.000000   # C_3
 226 1 2  -0.637160   8.377659  13.878790   0.000000   # O_3
 227 1 2  -0.639072   6.821610  12.322741   0.000000   # O_3
 228 1 3  -0.320670   6.106618  14.593782   0.000000   # C_3
 229 1 3   0.349978   4.812636  14.166733   0.000000   # C_3
 230 1 4  -0.364534   4.456796  12.789328   0.000207   # F_
 231 1 4  -0.153410   2.392345  14.821279  20.700193   # F_
 232 1 3   0.126541   3.817568  15.162629   0.000000   # C_3
 233 1 3  -0.166736   4.243582  16.456611   0.000000   # C_3
 234 1 3   0.136412   5.537564  16.882832   0.000000   # C_3
 235 1 3   0.356126   6.533667  15.887764   0.000000   # C_3
 236 1 4  -0.346876   7.911072  16.243604   0.000000   # F_
 237 1 4  -0.105253   5.879121  18.308262  20.700193   # F_
 238 1 2  -0.653118   3.528590  18.727652   0.000000   # O_3
 239 1 3   0.563406   3.179581  17.520612   0.000000   # C_3
 240 1 2  -0.716549   1.972541  17.171603   0.000000   # O_3
 241 1 3   0.618380  17.520819  17.520819   0.000000   # C_3
 242 1 2  -0.561468  18.727859  17.171810   0.000000   # O_3
 243 1 2  -0.562160  17.171810  18.727859   0.000000   # O_3
 244 1 3  -0.289637  16.456818  16.456818   0.000000   # C_3
 245 1 3   0.356912  15.162836  16.883867   0.000000   # C_3
 246 1 4  -0.308666  14.806996  18.261272   0.000000   # F_
 247 1 4  -0.127473  12.742131  16.229321  20.700400   # F_
 248 1 3   0.142030  14.167768  15.887971   0.000000   # C_3
 249 1 3  -0.178457  14.593782  14.593989   0.000000   # C_3
 250 1 3   0.141453  15.887764  14.167768   0.000000   # C_3
 251 1 3   0.356519  16.883867  15.162836   0.000000   # C_3
 252 1 4  -0.310003  18.261065  14.806996   0.000000   # F_
 253 1 4  -0.128640  16.229321  12.742338  20.700400   # F_
 254 1 2  -0.714537  13.878790  12.322948   0.000000   # O_3
 255 1 3   0.568916  13.529781  13.529988   0.000000   # C_3
 256 1 2  -0.714386  12.322741  13.878997   0.000000   # O_3
 257 1 3   0.611239  17.520819   7.170619  10.350200   # C_3
 258 1 2  -0.504255  18.727859   6.821610  10.350200   # O_3
 259 1 2  -0.574363  17.171810   8.377659  10.350200   # O_3
 260 1 3  -0.248339  16.456818   6.106618  10.350200   # C_3
 261 1 3   0.312958  15.162836   6.533667  10.350200   # C_3
 262 1 4  -0.305984  14.806996   7.911072  10.350200   # F_
 263 1 4  -0.296290  12.742131   5.879121  10.350407   # F_
 264 1 3   0.287348  14.167768   5.537564  10.350200   # C_3
 265 1 3  -0.247263  14.593782   4.243582  10.350200   # C_3
 266 1 3   0.292439  15.887764   3.817568  10.350200   # C_3
 267 1 3   0.319656  16.883867   4.812636  10.350200   # C_3
 268 1 4  -0.265054  18.260858   4.456796  10.350200   # F_
 269 1 4  -0.293259  16.229321   2.392345  10.350407   # F_
 270 1 2  -0.672353  13.878790   1.972748  10.350200   # O_3
 271 1 3   0.610084  13.529781   3.179581  10.350200   # C_3
 272 1 2  -0.664896  12.322741   3.528590  10.350200   # O_3
 273 1 3   0.606375   7.170619  17.520819  10.350200   # C_3
 274 1 2  -0.652938   8.377659  17.171810  10.350200   # O_3
 275 1 2  -0.597671   6.821610  18.727859  10.350200   # O_3
 276 1 3  -0.254604   6.106618  16.456818  10.350200   # C_3
 277 1 3   0.317788   4.812636  16.883867  10.350200   # C_3
 278 1 4  -0.275250   4.457003  18.261272  10.350200   # F_
 279 1 4  -0.302622   2.391724  16.229114  10.350200   # F_
 280 1 3   0.290645   3.817568  15.887971  10.350200   # C_3
 281 1 3  -0.249548   4.243582  14.593989  10.350200   # C_3
 282 1 3   0.286771   5.537564  14.167768  10.350200   # C_3
 283 1 3   0.312273   6.533667  15.162836  10.350200   # C_3
 284 1 4  -0.307503   7.910658  14.807203  10.350200   # F_
 285 1 4  -0.296983   5.879121  12.742338  10.350200   # F_
 286 1 2  -0.665421   3.528590  12.322948  10.350200   # O_3
 287 1 3   0.613433   3.179581  13.529988  10.350200   # C_3
 288 1 2  -0.687094   1.972541  13.878997  10.350200   # O_3
 289 1 3   0.621488   7.170619   7.170619   0.000000   # C_3
 290 1 2  -0.722910   8.377659   6.821610   0.000000   # O_3
 291 1 2  -0.722936   6.821610   8.377659   0.000000   # O_3
 292 1 3  -0.323848   6.106618   6.106618   0.000000   # C_3
 293 1 3   0.344337   4.812636   6.533667   0.000000   # C_3
 294 1 4  -0.366601   4.456796   7.910865   0.000207   # F_
 295 1 4  -0.164389   2.391724   5.879121  20.700193   # F_
 296 1 3   0.127199   3.817568   5.537564   0.000000   # C_3
 297 1 3  -0.181444   4.243582   4.243582   0.000000   # C_3
 298 1 3   0.127389   5.537564   3.817568   0.000000   # C_3
 299 1 3   0.344509   6.533667   4.812636   0.000000   # C_3
 300 1 4  -0.366168   7.910658   4.456796   0.000207   # F_
 301 1 4  -0.163578   5.879121   2.392138  20.700193   # F_
 302 1 2  -0.656031   3.528590   1.972748   0.000000   # O_3
 303 1 3   0.583811   3.179581   3.179581   0.000000   # C_3
 304 1 2  -0.656547   1.972541   3.528590   0.000000   # O_3
 305 1 3   0.626136   0.000000  17.520819   3.179581   # C_3
 306 1 2  -0.563595   0.000000  18.727859   3.528590   # O_3
 307 1 2  -0.642958   0.000000  17.171810   1.972541   # O_3
 308 1 3  -0.308393   0.000000  16.456818   4.243582   # C_3
 309 1 3   0.347265   0.000000  15.162836   3.816533   # C_3
 310 1 4  -0.376469   0.000207  14.806996   2.439128   # F_
 311 1 4  -0.150902  20.700193  12.742545   4.471079   # F_
 312 1 3   0.128630   0.000000  14.167768   4.812636   # C_3
 313 1 3  -0.179092   0.000000  14.593782   6.106618   # C_3
 314 1 3   0.137413   0.000000  15.887764   6.532632   # C_3
 315 1 3   0.356458   0.000000  16.883867   5.537564   # C_3
 316 1 4  -0.316634   0.000000  18.261272   5.893404   # F_
 317 1 4  -0.129390  20.700193  16.229321   7.958062   # F_
 318 1 2  -0.726652   0.000000  13.878790   8.377452   # O_3
 319 1 3   0.570323   0.000000  13.529781   7.170619   # C_3
 320 1 2  -0.719050   0.000000  12.322741   6.821610   # O_3
 321 1 3   0.629094   0.000000   7.170619  13.529781   # C_3
 322 1 2  -0.635960   0.000000   8.377659  13.878790   # O_3
 323 1 2  -0.627884   0.000000   6.821610  12.322741   # O_3
 324 1 3  -0.318345   0.000000   6.106618  14.593782   # C_3
 325 1 3   0.348597   0.000000   4.812636  14.166733   # C_3
 326 1 4  -0.362828   0.000000   4.456796  12.789328   # F_
 327 1 4  -0.154040  20.700193   2.392138  14.821279   # F_
 328 1 3   0.129081   0.000000   3.817568  15.162629   # C_3
 329 1 3  -0.169415   0.000000   4.243582  16.456611   # C_3
 330 1 3   0.137848   0.000000   5.537564  16.882832   # C_3
 331 1 3   0.354463   0.000000   6.533667  15.887764   # C_3
 332 1 4  -0.344717   0.000207   7.911072  16.243604   # F_
 333 1 4  -0.112171  20.700193   5.879121  18.308055   # F_
 334 1 2  -0.654750   0.000000   3.528590  18.727652   # O_3
 335 1 3   0.566717   0.000000   3.179581  17.520612   # C_3
 336 1 2  -0.725457   0.000000   1.972541  17.171603   # O_3
 337 1 3   0.610868  10.350200  17.520819  13.529781   # C_3
 338 1 2  -0.600805  10.350200  18.727859  13.878790   # O_3
 339 1 2  -0.652071  10.350200  17.171810  12.322741   # O_3
 340 1 3  -0.254097  10.350200  16.456818  14.593782   # C_3
 341 1 3   0.316667  10.350200  15.162836  14.166733   # C_3
 342 1 4  -0.306695  10.349993  14.806996  12.789328   # F_
 343 1 4  -0.294846  10.350407  12.742545  14.821279   # F_
 344 1 3   0.285947  10.350200  14.167768  15.162629   # C_3
 345 1 3  -0.231413  10.350200  14.593782  16.456611   # C_3
 346 1 3   0.300105  10.350200  15.887764  16.882832   # C_3
 347 1 3   0.329701  10.350200  16.883867  15.887764   # C_3
 348 1 4  -0.247778  10.349993  18.261272  16.243604   # F_
 349 1 4  -0.241764  10.350407  16.229114  18.308262   # F_
 350 1 2  -0.589492  10.350200  13.878790  18.727652   # O_3
 351 1 3   0.600018  10.350200  13.529781  17.520612   # C_3
 352 1 2  -0.647859  10.350200  12.322741  17.171603   # O_3
 353 1 3   0.616476  10.350200   7.170619   3.179581   # C_3
 354 1 2  -0.666754  10.350200   8.377659   3.528590   # O_3
 355 1 2  -0.677008  10.350200   6.821610   1.972541   # O_3
 356 1 3  -0.271350  10.350200   6.106618   4.243582   # C_3
 357 1 3   0.312087  10.350200   4.812636   3.816533   # C_3
 358 1 4  -0.327316  10.349993   4.456796   2.439128   # F_
 359 1 4  -0.313551  10.350200   2.392138   4.471079   # F_
 360 1 3   0.279316  10.350200   3.817568   4.812636   # C_3
 361 1 3  -0.241403  10.350200   4.243582   6.106618   # C_3
 362 1 3   0.282304  10.350200   5.537564   6.532632   # C_3
 363 1 3   0.314418  10.350200   6.533667   5.537564   # C_3
 364 1 4  -0.309243  10.349993   7.910865   5.893404   # F_
 365 1 4  -0.296145  10.350200   5.878914   7.958269   # F_
 366 1 2  -0.580256  10.350200   3.528590   8.377452   # O_3
 367 1 3   0.613966  10.350200   3.179581   7.170619   # C_3
 368 1 2  -0.579694  10.350200   1.972541   6.821610   # O_3
 369 1 3   0.601785   0.000000  17.520819  17.520819   # C_3
 370 1 2  -0.643029   0.000000  18.727859  17.171810   # O_3
 371 1 2  -0.635253   0.000000  17.171810  18.727859   # O_3
 372 1 3  -0.258858   0.000000  16.456818  16.456818   # C_3
 373 1 3   0.306341   0.000000  15.162836  16.883867   # C_3
 374 1 4  -0.300141   0.000000  14.807203  18.261272   # F_
 375 1 4  -0.316422   0.000000  12.742131  16.229321   # F_
 376 1 3   0.279296   0.000000  14.167768  15.887971   # C_3
 377 1 3  -0.263790   0.000000  14.593782  14.593989   # C_3
 378 1 3   0.280228   0.000000  15.887764  14.167768   # C_3
 379 1 3   0.307362   0.000000  16.883867  15.162836   # C_3
 380 1 4  -0.294793   0.000000  18.261065  14.807203   # F_
 381 1 4  -0.317641   0.000000  16.229114  12.742338   # F_
 382 1 2  -0.724968   0.000000  13.878790  12.322948   # O_3
 383 1 3   0.609308   0.000000  13.529781  13.529988   # C_3
 384 1 2  -0.713890   0.000000  12.322741  13.878997   # O_3
 385 1 3   0.617044   0.000000   7.170619   7.170619   # C_3
 386 1 2  -0.636410   0.000000   8.377659   6.821610   # O_3
 387 1 2  -0.624652   0.000000   6.821610   8.377659   # O_3
 388 1 3  -0.282483   0.000000   6.106618   6.106618   # C_3
 389 1 3   0.296853   0.000000   4.812636   6.533667   # C_3
 390 1 4  -0.346941   0.000000   4.456589   7.911072   # F_
 391 1 4  -0.347975   0.000000   2.391931   5.879328   # F_
 392 1 3   0.267619   0.000000   3.817568   5.537564   # C_3
 393 1 3  -0.265079   0.000000   4.243582   4.243582   # C_3
 394 1 3   0.266117   0.000000   5.537564   3.817568   # C_3
 395 1 3   0.295901   0.000000   6.533667   4.812636   # C_3
 396 1 4  -0.352570   0.000000   7.910865   4.456796   # F_
 397 1 4  -0.361584   0.000000   5.879121   2.391931   # F_
 398 1 2  -0.650706   0.000000   3.528590   1.972748   # O_3
 399 1 3   0.618521   0.000000   3.179581   3.179581   # C_3
 400 1 2  -0.634467   0.000000   1.972541   3.528590   # O_3
 401 1 3   0.611414  10.350200  17.520819   7.170619   # C_3
 402 1 2  -0.505171  10.350200  18.727859   6.821610   # O_3
 403 1 2  -0.574471  10.350200  17.171810   8.377659   # O_3
 404 1 3  -0.247965  10.350200  16.456818   6.106618   # C_3
 405 1 3   0.313008  10.350200  15.162836   6.533667   # C_3
 406 1 4  -0.305951  10.350200  14.806996   7.911072   # F_
 407 1 4  -0.295586  10.350200  12.741924   5.879121   # F_
 408 1 3   0.288491  10.350200  14.167768   5.537564   # C_3
 409 1 3  -0.244664  10.350200  14.593782   4.243582   # C_3
 410 1 3   0.292970  10.350200  15.887764   3.817568   # C_3
 411 1 3   0.319382  10.350200  16.883867   4.812636   # C_3
 412 1 4  -0.266153  10.350200  18.260858   4.456796   # F_
 413 1 4  -0.301540  10.350200  16.229321   2.392138   # F_
 414 1 2  -0.591595  10.350200  13.878790   1.972748   # O_3
 415 1 3   0.620088  10.350200  13.529781   3.179581   # C_3
 416 1 2  -0.580343  10.350200  12.322741   3.528590   # O_3
 417 1 3   0.614280  10.350200   7.170619  17.520819   # C_3
 418 1 2  -0.574187  10.350200   8.377659  17.171810   # O_3
 419 1 2  -0.514166  10.350200   6.821610  18.727859   # O_3
 420 1 3  -0.249188  10.350200   6.106618  16.456818   # C_3
 421 1 3   0.319382  10.350200   4.812636  16.883867   # C_3
 422 1 4  -0.266231  10.350200   4.456796  18.261272   # F_
 423 1 4  -0.294580  10.350407   2.391724  16.229321   # F_
 424 1 3   0.292024  10.350200   3.817568  15.887971   # C_3
 425 1 3  -0.248116  10.350200   4.243582  14.593989   # C_3
 426 1 3   0.287424  10.350200   5.537564  14.167768   # C_3
 427 1 3   0.313078  10.350200   6.533667  15.162836   # C_3
 428 1 4  -0.306244  10.350200   7.910865  14.806996   # F_
 429 1 4  -0.296616  10.350200   5.879121  12.742545   # F_
 430 1 2  -0.664894  10.350200   3.528590  12.322948   # O_3
 431 1 3   0.612752  10.350200   3.179581  13.529988   # C_3
 432 1 2  -0.682178  10.350200   1.972541  13.878997   # O_3
