 (written by mofun)

1496 atoms
0 bonds
0 angles
0 dihedrals
0 impropers

5 atom types
   0.000000  26.896000 xlo xhi
   0.000000  26.896000 ylo yhi
   0.000000  26.896000 zlo zhi

Masses

 1 91.2240   # Zr3+4
 2 15.9994   # O_3
 3 12.0107   # C_3
 4 1.0079   # H_
 5 14.0067   # N_3

Pair Coeffs

 1   0.069000   2.783168 # Zr3+4
 2   0.060000   3.118146 # O_3
 3   0.105000   3.430851 # C_3
 4   0.044000   2.571134 # H_
 5   0.069000   3.260689 # N_3

Atoms

 1 1 1   3.190710   2.475508   0.000000   0.000000   # Zr3+4
 2 1 1   3.190100  24.420492   0.000000   0.000000   # Zr3+4
 3 1 1   3.190350   0.000000   2.475508   0.000000   # Zr3+4
 4 1 1   3.189770   0.000000  24.420492   0.000000   # Zr3+4
 5 1 1   3.189920   0.000000   0.000000   2.475508   # Zr3+4
 6 1 1   3.189380   0.000000   0.000000  24.420492   # Zr3+4
 7 1 1   3.214760   2.475508  13.448000  13.448000   # Zr3+4
 8 1 1   3.213670  24.420492  13.448000  13.448000   # Zr3+4
 9 1 1   3.201960   0.000000  15.923508  13.448000   # Zr3+4
 10 1 1   3.201930   0.000000  10.972492  13.448000   # Zr3+4
 11 1 1   3.202010   0.000000  13.448000  15.923508   # Zr3+4
 12 1 1   3.201980   0.000000  13.448000  10.972492   # Zr3+4
 13 1 1   3.202270  15.923508   0.000000  13.448000   # Zr3+4
 14 1 1   3.202240  10.972492   0.000000  13.448000   # Zr3+4
 15 1 1   3.214740  13.448000   2.475508  13.448000   # Zr3+4
 16 1 1   3.213670  13.448000  24.420492  13.448000   # Zr3+4
 17 1 1   3.202270  13.448000   0.000000  15.923508   # Zr3+4
 18 1 1   3.202240  13.448000   0.000000  10.972492   # Zr3+4
 19 1 1   3.202790  15.923508  13.448000   0.000000   # Zr3+4
 20 1 1   3.202760  10.972492  13.448000   0.000000   # Zr3+4
 21 1 1   3.202750  13.448000  15.923508   0.000000   # Zr3+4
 22 1 1   3.202720  13.448000  10.972492   0.000000   # Zr3+4
 23 1 1   3.214740  13.448000  13.448000   2.475508   # Zr3+4
 24 1 1   3.213710  13.448000  13.448000  24.420492   # Zr3+4
 25 1 2  -1.321770   1.221078   1.221078   1.221078   # O_3
 26 1 2  -1.147890  25.674922  25.674922   1.221078   # O_3
 27 1 2  -1.150970  25.674922   1.221078  25.674922   # O_3
 28 1 2  -1.153170   1.221078  25.674922  25.674922   # O_3
 29 1 2  -1.236300   1.221078   1.221078  25.674922   # O_3
 30 1 2  -1.068830  25.674922  25.674922  25.674922   # O_3
 31 1 2  -1.233100   1.221078  25.674922   1.221078   # O_3
 32 1 2  -1.230950  25.674922   1.221078   1.221078   # O_3
 33 1 2  -1.272600   1.221078  14.669078  14.669078   # O_3
 34 1 2  -1.183450  25.674922  12.226922  14.669078   # O_3
 35 1 2  -1.183440  25.674922  14.669078  12.226922   # O_3
 36 1 2  -1.272530   1.221078  12.226922  12.226922   # O_3
 37 1 2  -1.271940   1.221078  14.669078  12.226922   # O_3
 38 1 2  -1.182280  25.674922  12.226922  12.226922   # O_3
 39 1 2  -1.271940   1.221078  12.226922  14.669078   # O_3
 40 1 2  -1.182810  25.674922  14.669078  14.669078   # O_3
 41 1 2  -1.271930  14.669078   1.221078  14.669078   # O_3
 42 1 2  -1.184870  12.226922  25.674922  14.669078   # O_3
 43 1 2  -1.271850  12.226922   1.221078  12.226922   # O_3
 44 1 2  -1.184880  14.669078  25.674922  12.226922   # O_3
 45 1 2  -1.271430  14.669078   1.221078  12.226922   # O_3
 46 1 2  -1.184480  12.226922  25.674922  12.226922   # O_3
 47 1 2  -1.185000  14.669078  25.674922  14.669078   # O_3
 48 1 2  -1.271430  12.226922   1.221078  14.669078   # O_3
 49 1 2  -1.271090  14.669078  14.669078   1.221078   # O_3
 50 1 2  -1.271010  12.226922  12.226922   1.221078   # O_3
 51 1 2  -1.187300  12.226922  14.669078  25.674922   # O_3
 52 1 2  -1.187300  14.669078  12.226922  25.674922   # O_3
 53 1 2  -1.187240  14.669078  14.669078  25.674922   # O_3
 54 1 2  -1.186710  12.226922  12.226922  25.674922   # O_3
 55 1 2  -1.270430  14.669078  12.226922   1.221078   # O_3
 56 1 2  -1.270450  12.226922  14.669078   1.221078   # O_3
 57 1 2  -0.676496   3.566410   0.000000   1.933822   # O_3
 58 1 3   0.479921   3.152211   0.000000   3.152211   # C_3
 59 1 2  -0.676985   1.933822   0.000000   3.566410   # O_3
 60 1 3  -0.147258   4.209224   0.000000   4.209224   # C_3
 61 1 3   0.038661   5.535197   0.000000   3.891851   # C_3
 62 1 3  -0.012913   3.891851   0.000000   5.535197   # C_3
 63 1 3  -0.105481   6.508832   0.000000   4.827832   # C_3
 64 1 4   0.002172   5.779950   0.000000   2.996214   # H_
 65 1 3   0.007258   4.827832   0.000000   6.508832   # C_3
 66 1 4   0.020594   2.996214   0.000000   5.779950   # H_
 67 1 3  -0.023161   6.204907   0.000000   6.204907   # C_3
 68 1 3   0.050292   7.243093   0.000000   7.243093   # C_3
 69 1 4   0.034646   7.399090   0.000000   4.558872   # H_
 70 1 3  -0.097360   8.620168   0.000000   6.939168   # C_3
 71 1 5  -0.217484   4.286416   0.333779   7.894514   # N_3
 72 1 3  -0.172674   6.939168   0.000000   8.620168   # C_3
 73 1 3   0.057175   9.556149   0.000000   7.912803   # C_3
 74 1 5  -0.007329   9.153785  26.619778   5.554831   # N_3
 75 1 3   0.094682   7.912803   0.000000   9.556149   # C_3
 76 1 4   0.070626   6.048910   0.000000   8.889128   # H_
 77 1 3  -0.196809   9.238776   0.000000   9.238776   # C_3
 78 1 3   0.490404  10.295789   0.000000  10.295789   # C_3
 79 1 4  -0.001704  10.451786   0.000000   7.668050   # H_
 80 1 4  -0.023842   7.668050   0.000000  10.451786   # H_
 81 1 2  -0.674989  11.514178   0.000000   9.881590   # O_3
 82 1 2  -0.676637   9.881590   0.000000  11.514178   # O_3
 83 1 3  -0.027328   9.308437  25.236517   5.160804   # C_3
 84 1 3  -0.013675   3.640105   1.653835   7.925444   # C_3
 85 1 3  -0.049620  10.519564  25.100423   4.189859   # C_3
 86 1 3  -0.072378   4.767316   2.689600   7.751427   # C_3
 87 1 4   0.169022   3.542203  26.516497   8.062883   # H_
 88 1 4  -0.019698  10.011498   0.306345   5.393993   # H_
 89 1 3  -0.069495   4.225900   4.026600   7.316788   # C_3
 90 1 4   0.011919   2.809287   1.708972   7.192259   # H_
 91 1 4   0.064911   8.395855  24.944426   4.607285   # H_
 92 1 4   0.036807   5.091682   4.633105   6.975747   # H_
 93 1 3  -0.032542   3.491370   4.722400   8.461751   # C_3
 94 1 4   0.042564   3.494866   3.928161   6.463378   # H_
 95 1 3  -0.094369  11.802503  25.053893   5.047841   # C_3
 96 1 4   0.094867  11.804654  25.900579   5.722662   # H_
 97 1 3  -0.011001  13.024119  25.064651   4.131764   # C_3
 98 1 4   0.054836  11.734994  24.135126   5.640629   # H_
 99 1 4   0.062320   9.428124  24.540717   5.997808   # H_
 100 1 4   0.004935   3.220258   1.859052   8.917638   # H_
 101 1 4   0.058149  10.507191  25.908917   3.393468   # H_
 102 1 4   0.029981  10.296865  24.153146   3.702772   # H_
 103 1 4   0.051792   5.460157   2.427095   6.928679   # H_
 104 1 4   0.040943   5.382159   2.762757   8.673691   # H_
 105 1 4   0.026869   4.012614   4.732082   9.449372   # H_
 106 1 4   0.020135   2.479542   4.270009   8.549432   # H_
 107 1 3  -0.147779   3.346938   6.168060   8.026035   # C_3
 108 1 4   0.049251  12.873770  25.849477   3.368724   # H_
 109 1 4   0.021143  13.113414  24.082678   3.622084   # H_
 110 1 3  -0.176705  14.371071  25.324467   4.812232   # C_3
 111 1 4   0.079392  15.165579  25.568144   4.090075   # H_
 112 1 4   0.062277  14.711574  24.362397   5.246872   # H_
 113 1 4   0.107036  14.293072  26.030218   5.623416   # H_
 114 1 4   0.060831   2.671849   6.240410   7.136854   # H_
 115 1 4   0.052704   4.341552   6.591941   7.740400   # H_
 116 1 4   0.057364   2.911223   6.747400   8.903383   # H_
 117 1 2  -0.673455  23.329590   0.000000   1.933822   # O_3
 118 1 3   0.482731  23.743789   0.000000   3.152211   # C_3
 119 1 2  -0.613607  24.962178   0.000000   3.566410   # O_3
 120 1 3  -0.168390  22.686776   0.000000   4.209224   # C_3
 121 1 3   0.078863  21.360803   0.000000   3.891851   # C_3
 122 1 3   0.037211  23.004149   0.000000   5.535197   # C_3
 123 1 3  -0.156810  20.387168   0.000000   4.827832   # C_3
 124 1 4  -0.010185  21.116050   0.000000   2.996214   # H_
 125 1 3  -0.078691  22.068168   0.000000   6.508832   # C_3
 126 1 4   0.026304  23.899786   0.000000   5.779950   # H_
 127 1 3   0.038475  20.691093   0.000000   6.204907   # C_3
 128 1 3  -0.022267  19.652907   0.000000   7.243093   # C_3
 129 1 4   0.069257  19.496910   0.000000   4.558872   # H_
 130 1 3   0.006773  18.275832   0.000000   6.939168   # C_3
 131 1 5  -0.017991  22.609047  26.561414   7.894514   # N_3
 132 1 3  -0.107535  19.956832   0.000000   8.620168   # C_3
 133 1 3  -0.021397  17.339851   0.000000   7.912803   # C_3
 134 1 5  -0.215522  17.742215   0.276222   5.554562   # N_3
 135 1 3   0.033978  18.983197   0.000000   9.556149   # C_3
 136 1 4   0.043629  20.847090   0.000000   8.889128   # H_
 137 1 3  -0.144062  17.657224   0.000000   9.238776   # C_3
 138 1 3   0.472037  16.600211   0.000000  10.295789   # C_3
 139 1 4   0.023074  16.444214   0.000000   7.668050   # H_
 140 1 4   0.010662  19.227950   0.000000  10.451786   # H_
 141 1 2  -0.670787  15.381822   0.000000   9.881590   # O_3
 142 1 2  -0.669908  17.014410   0.000000  11.514178   # O_3
 143 1 3  -0.022442  17.587025   1.659214   5.160536   # C_3
 144 1 3  -0.014351  23.255357  25.241358   7.924637   # C_3
 145 1 3  -0.082699  16.375630   1.795039   4.189859   # C_3
 146 1 3  -0.065122  22.128415  24.205055   7.753041   # C_3
 147 1 4   0.000044  23.353528   0.378427   8.063152   # H_
 148 1 4   0.170724  16.884502  26.589386   5.393993   # H_
 149 1 3  -0.070124  22.671176  22.869131   7.314905   # C_3
 150 1 4   0.087444  24.085099  25.186221   7.190377   # H_
 151 1 4   0.030695  18.499338   1.951305   4.606478   # H_
 152 1 4   0.041864  21.805932  22.260474   6.975478   # H_
 153 1 3  -0.033869  23.411085  22.175483   8.458523   # C_3
 154 1 4   0.068456  23.399520  22.969184   6.459612   # H_
 155 1 3  -0.081390  15.092959   1.841300   5.048648   # C_3
 156 1 4   0.010484  15.091077   0.994345   5.722931   # H_
 157 1 3  -0.038245  13.871343   1.830542   4.132839   # C_3
 158 1 4   0.044948  15.160468   2.760068   5.641705   # H_
 159 1 4   0.038873  17.467876   2.355014   5.997539   # H_
 160 1 4   0.049589  23.677087  25.036680   8.916024   # H_
 161 1 4  -0.002862  16.388002   0.986276   3.394006   # H_
 162 1 4   0.032243  16.597522   2.742047   3.702234   # H_
 163 1 4   0.079652  21.432078  24.467829   6.932982   # H_
 164 1 4   0.058426  21.517069  24.130015   8.677188   # H_
 165 1 4   0.032788  22.895489  22.171180   9.448834   # H_
 166 1 4   0.058329  24.424258  22.625453   8.538942   # H_
 167 1 3  -0.148900  23.549600  20.727671   8.029801   # C_3
 168 1 4  -0.010458  14.021692   1.045985   3.369531   # H_
 169 1 4   0.024060  13.781779   2.812784   3.623160   # H_
 170 1 3  -0.160595  12.524660   1.570726   4.813846   # C_3
 171 1 4   0.024862  11.729884   1.327318   4.091688   # H_
 172 1 4   0.052921  12.184426   2.532527   5.249023   # H_
 173 1 4   0.025126  12.603197   0.864437   5.624492   # H_
 174 1 4   0.091432  24.221193  20.649942   7.138198   # H_
 175 1 4   0.056875  22.552565  20.304866   7.750620   # H_
 176 1 4   0.080562  23.988004  20.151559   8.908493   # H_
 177 1 2  -0.605828  23.329590   0.000000  24.962178   # O_3
 178 1 3   0.454122  23.743789   0.000000  23.743789   # C_3
 179 1 2  -0.603076  24.962178   0.000000  23.329590   # O_3
 180 1 3  -0.091023  22.686776   0.000000  22.686776   # C_3
 181 1 3   0.002525  21.360803   0.000000  23.004149   # C_3
 182 1 3  -0.046425  23.004149   0.000000  21.360803   # C_3
 183 1 3  -0.068398  20.387168   0.000000  22.068168   # C_3
 184 1 4   0.043626  21.116050   0.000000  23.899786   # H_
 185 1 3   0.034340  22.068168   0.000000  20.387168   # C_3
 186 1 4   0.058218  23.899786   0.000000  21.116050   # H_
 187 1 3  -0.040425  20.691093   0.000000  20.691093   # C_3
 188 1 3   0.059713  19.652907   0.000000  19.652907   # C_3
 189 1 4   0.031051  19.496910   0.000000  22.337128   # H_
 190 1 3  -0.098890  18.275832   0.000000  19.956832   # C_3
 191 1 5  -0.218550  22.608509   0.336200  19.001755   # N_3
 192 1 3  -0.178323  19.956832   0.000000  18.275832   # C_3
 193 1 3   0.059320  17.339851   0.000000  18.983197   # C_3
 194 1 5  -0.008592  17.742484  26.619778  21.341169   # N_3
 195 1 3   0.098884  18.983197   0.000000  17.339851   # C_3
 196 1 4   0.073515  20.847090   0.000000  18.006872   # H_
 197 1 3  -0.199100  17.657224   0.000000  17.657224   # C_3
 198 1 3   0.491136  16.600211   0.000000  16.600211   # C_3
 199 1 4  -0.002208  16.444214   0.000000  19.227950   # H_
 200 1 4  -0.025031  19.227950   0.000000  16.444214   # H_
 201 1 2  -0.675084  15.381822   0.000000  17.014410   # O_3
 202 1 2  -0.676744  17.014410   0.000000  15.381822   # O_3
 203 1 3  -0.026054  17.587294  25.236517  21.734658   # C_3
 204 1 3  -0.019647  23.254013   1.656256  18.972707   # C_3
 205 1 3  -0.053399  16.375899  25.100423  22.705603   # C_3
 206 1 3  -0.066348  22.127608   2.693096  19.142421   # C_3
 207 1 4   0.182659  23.353259  26.519725  18.832310   # H_
 208 1 4  -0.016126  16.884771   0.306614  21.502276   # H_
 209 1 3  -0.072024  22.671983   4.027945  19.584591   # C_3
 210 1 4   0.042367  24.083216   1.711124  19.707775   # H_
 211 1 4   0.077198  18.499876  24.944157  22.288446   # H_
 212 1 4   0.040461  21.807546   4.639022  19.921867   # H_
 213 1 3  -0.031846  23.418885   4.718365  18.442587   # C_3
 214 1 4   0.063603  23.397099   3.925202  20.442574   # H_
 215 1 3  -0.090074  15.093228  25.053893  21.847083   # C_3
 216 1 4   0.092812  15.091346  25.900579  21.172262   # H_
 217 1 3  -0.014422  13.871881  25.064651  22.763161   # C_3
 218 1 4   0.054081  15.161006  24.134857  21.254564   # H_
 219 1 4   0.064319  17.467876  24.540986  20.897654   # H_
 220 1 4   0.022720  23.677894   1.860934  17.982128   # H_
 221 1 4   0.076226  16.388271  25.909455  23.501187   # H_
 222 1 4   0.043246  16.598328  24.153684  23.193228   # H_
 223 1 4   0.052067  21.427505   2.429785  19.958984   # H_
 224 1 4   0.039241  21.520296   2.770288  18.215585   # H_
 225 1 4   0.029589  22.910013   4.715407  17.449049   # H_
 226 1 4   0.054143  24.433671   4.271085  18.371044   # H_
 227 1 3  -0.149695  23.549869   6.168867  18.861627   # C_3
 228 1 4   0.061164  14.022230  25.849477  23.526200   # H_
 229 1 4   0.028374  13.783124  24.082678  23.273109   # H_
 230 1 3  -0.175681  12.524660  25.323929  22.082692   # C_3
 231 1 4   0.085514  11.730152  25.567069  22.805118   # H_
 232 1 4   0.062732  12.184426  24.361590  21.648052   # H_
 233 1 4   0.106238  12.602390  26.029680  21.271777   # H_
 234 1 4   0.091862  24.219041   6.253320  19.755112   # H_
 235 1 4   0.056855  22.550682   6.590327  19.134890   # H_
 236 1 4   0.080509  23.990156   6.740407  17.980514   # H_
 237 1 2  -0.616141   3.566410   0.000000  24.962178   # O_3
 238 1 3   0.484286   3.152211   0.000000  23.743789   # C_3
 239 1 2  -0.674969   1.933822   0.000000  23.329590   # O_3
 240 1 3  -0.170942   4.209224   0.000000  22.686776   # C_3
 241 1 3   0.078528   5.535197   0.000000  23.004149   # C_3
 242 1 3   0.044800   3.891851   0.000000  21.360803   # C_3
 243 1 3  -0.152270   6.508832   0.000000  22.068168   # C_3
 244 1 4   0.016629   5.779950   0.000000  23.899786   # H_
 245 1 3  -0.087207   4.827832   0.000000  20.387168   # C_3
 246 1 4  -0.000256   2.996214   0.000000  21.116050   # H_
 247 1 3   0.040431   6.204907   0.000000  20.691093   # C_3
 248 1 3  -0.023245   7.243093   0.000000  19.652907   # C_3
 249 1 4   0.075733   7.399090   0.000000  22.337128   # H_
 250 1 3   0.007375   8.620168   0.000000  19.956832   # C_3
 251 1 5  -0.016186   4.287760  26.559262  19.002024   # N_3
 252 1 3  -0.106893   6.939168   0.000000  18.275832   # C_3
 253 1 3  -0.021915   9.556149   0.000000  18.983197   # C_3
 254 1 5  -0.213897   9.153785   0.276222  21.341438   # N_3
 255 1 3   0.033379   7.912803   0.000000  17.339851   # C_3
 256 1 4   0.042947   6.048910   0.000000  18.006872   # H_
 257 1 3  -0.143643   9.238776   0.000000  17.657224   # C_3
 258 1 3   0.471894  10.295789   0.000000  16.600211   # C_3
 259 1 4   0.023376  10.451786   0.000000  19.227950   # H_
 260 1 4   0.010861   7.668050   0.000000  16.444214   # H_
 261 1 2  -0.670673  11.514178   0.000000  17.014410   # O_3
 262 1 2  -0.669924   9.881590   0.000000  15.381822   # O_3
 263 1 3  -0.020331   9.309244   1.659214  21.734927   # C_3
 264 1 3  -0.008312   3.642525  25.238937  18.972976   # C_3
 265 1 3  -0.086223  10.521177   1.794770  22.705334   # C_3
 266 1 3  -0.070418   4.768661  24.201828  19.141883   # C_3
 267 1 4  -0.017212   3.542741   0.375468  18.832041   # H_
 268 1 4   0.171514  10.011229  26.589117  21.502007   # H_
 269 1 3  -0.069099   4.223479  22.867786  19.585936   # C_3
 270 1 4   0.058443   2.813860  25.184070  19.708582   # H_
 271 1 4   0.040993   8.397200   1.951305  22.289253   # H_
 272 1 4   0.041714   5.087647  22.255364  19.922405   # H_
 273 1 3  -0.033881   3.474156  22.178442  18.444739   # C_3
 274 1 4   0.053735   3.499708  22.971336  20.444725   # H_
 275 1 3  -0.076820  11.803310   1.841300  21.846007   # C_3
 276 1 4   0.009721  11.805192   0.994345  21.171455   # H_
 277 1 3  -0.041514  13.024926   1.830542  22.761816   # C_3
 278 1 4   0.043960  11.735532   2.760336  21.253219   # H_
 279 1 4   0.039325   9.428662   2.354745  20.897923   # H_
 280 1 4   0.032117   3.217568  25.034528  17.983204   # H_
 281 1 4   0.016924  10.509074   0.985738  23.500918   # H_
 282 1 4   0.045184  10.299016   2.741240  23.193497   # H_
 283 1 4   0.081197   5.470646  24.465677  19.956832   # H_
 284 1 4   0.059488   5.374359  24.123829  18.213971   # H_
 285 1 4   0.029530   3.980339  22.184359  17.449587   # H_
 286 1 4   0.024929   2.458563  22.624646  18.376423   # H_
 287 1 3  -0.147042   3.345593  20.726864  18.859475   # C_3
 288 1 4   0.002987  12.874577   1.045985  23.525124   # H_
 289 1 4   0.031469  13.114490   2.812784  23.271226   # H_
 290 1 3  -0.159571  14.371609   1.570726  22.080540   # C_3
 291 1 4   0.031990  15.166385   1.327587  22.802429   # H_
 292 1 4   0.053319  14.711843   2.532796  21.645094   # H_
 293 1 4   0.025448  14.292534   0.864437  21.269895   # H_
 294 1 4   0.061757   2.677497  20.639721  19.753498   # H_
 295 1 4   0.053531   4.345587  20.305942  19.130318   # H_
 296 1 4   0.056957   2.904768  20.157207  17.977286   # H_
 297 1 2  -0.676758   1.933822   3.566410   0.000000   # O_3
 298 1 3   0.481230   3.152211   3.152211   0.000000   # C_3
 299 1 2  -0.674708   3.566410   1.933822   0.000000   # O_3
 300 1 3  -0.148594   4.209224   4.209224   0.000000   # C_3
 301 1 3   0.042748   3.891851   5.535197   0.000000   # C_3
 302 1 3  -0.009157   5.535197   3.891851   0.000000   # C_3
 303 1 3  -0.106557   4.827832   6.508832   0.000000   # C_3
 304 1 4  -0.002754   2.996214   5.779950   0.000000   # H_
 305 1 3   0.010951   6.508832   4.827832   0.000000   # C_3
 306 1 4   0.027468   5.779950   2.996214   0.000000   # H_
 307 1 3  -0.017707   6.204907   6.204907   0.000000   # C_3
 308 1 3   0.049318   7.243093   7.243093   0.000000   # C_3
 309 1 4   0.037229   4.558872   7.399090   0.000000   # H_
 310 1 3  -0.087829   6.939168   8.620168   0.000000   # C_3
 311 1 5  -0.153373   7.865197   4.311429   0.433026   # N_3
 312 1 3  -0.166712   8.620168   6.939168   0.000000   # C_3
 313 1 3   0.050146   7.912803   9.556149   0.000000   # C_3
 314 1 5  -0.018320   5.568010   9.157550  26.504663   # N_3
 315 1 3   0.090275   9.556149   7.912803   0.000000   # C_3
 316 1 4   0.071927   8.889128   6.048910   0.000000   # H_
 317 1 3  -0.190885   9.238776   9.238776   0.000000   # C_3
 318 1 3   0.488483  10.295789  10.295789   0.000000   # C_3
 319 1 4   0.000828   7.668050  10.451786   0.000000   # H_
 320 1 4  -0.018728  10.451786   7.668050   0.000000   # H_
 321 1 2  -0.672187   9.881590  11.514178   0.000000   # O_3
 322 1 2  -0.673872  11.514178   9.881590   0.000000   # O_3
 323 1 3  -0.024934   5.563707  10.065021  25.341949   # C_3
 324 1 3  -0.027821   7.793923   4.250913   1.904237   # C_3
 325 1 3  -0.049878   4.196852  10.022525  24.726569   # C_3
 326 1 3  -0.072848   9.244424   4.192817   2.457219   # C_3
 327 1 4   0.036313   7.984347   3.336987   0.076385   # H_
 328 1 4  -0.015306   5.309808   9.714297   0.463956   # H_
 329 1 3  -0.077133   9.490792   4.582003   3.944836   # C_3
 330 1 4   0.039059   7.290968   5.112123   2.345331   # H_
 331 1 4   0.065489   6.292588   9.719945  24.598813   # H_
 332 1 4   0.036840  10.574700   4.547307   4.134453   # H_
 333 1 3  -0.032751   8.715111   3.655704   4.897762   # C_3
 334 1 4   0.038801   9.089234   5.631484   4.066137   # H_
 335 1 3  -0.084658   3.157052  10.535432  25.740548   # C_3
 336 1 4   0.090167   3.350973  10.153778  26.778196   # H_
 337 1 3  -0.021630   1.726185  10.123385  25.341680   # C_3
 338 1 4   0.056602   3.224830  11.620417  25.750230   # H_
 339 1 4   0.065742   5.798509  11.124186  25.607682   # H_
 340 1 4   0.026275   7.290430   3.295567   2.194714   # H_
 341 1 4   0.051557   3.941071   8.992947  24.299460   # H_
 342 1 4   0.033341   4.192280  10.751138  23.898441   # H_
 343 1 4   0.031249   9.840977   4.864948   1.852328   # H_
 344 1 4   0.020192   9.628230   3.167004   2.310904   # H_
 345 1 4   0.023824   8.787730   2.603802   4.527135   # H_
 346 1 4   0.029387   7.631740   3.948871   4.898300   # H_
 347 1 3  -0.150671   9.091924   3.670497   6.385379   # C_3
 348 1 4   0.002873   1.637966  10.309237  24.256427   # H_
 349 1 4   0.012441   0.985469  10.728814  25.877717   # H_
 350 1 3  -0.172176   1.560775   8.633347  25.744582   # C_3
 351 1 4   0.076700   2.015317   7.948844  24.986384   # H_
 352 1 4   0.047447   0.506183   8.324581  25.844635   # H_
 353 1 4   0.101166   2.040868   8.465785  26.716335   # H_
 354 1 4   0.054407   8.929203   4.707069   6.767840   # H_
 355 1 4   0.056712  10.145709   3.347207   6.572576   # H_
 356 1 4   0.058974   8.410648   2.946457   6.920610   # H_
 357 1 2  -0.672163   1.933822  23.329590   0.000000   # O_3
 358 1 3   0.481712   3.152211  23.743789   0.000000   # C_3
 359 1 2  -0.612399   3.566410  24.962178   0.000000   # O_3
 360 1 3  -0.161645   4.209224  22.686776   0.000000   # C_3
 361 1 3   0.074958   3.891851  21.360803   0.000000   # C_3
 362 1 3   0.028471   5.535197  23.004149   0.000000   # C_3
 363 1 3  -0.148271   4.827832  20.387168   0.000000   # C_3
 364 1 4  -0.005287   2.996214  21.116050   0.000000   # H_
 365 1 3  -0.070472   6.508832  22.068168   0.000000   # C_3
 366 1 4   0.025516   5.779950  23.899786   0.000000   # H_
 367 1 3   0.035609   6.204907  20.691093   0.000000   # C_3
 368 1 3  -0.013663   7.243093  19.652907   0.000000   # C_3
 369 1 4   0.070963   4.558872  19.496910   0.000000   # H_
 370 1 3   0.000835   6.939168  18.275832   0.000000   # C_3
 371 1 5  -0.082001   7.864928  22.584571  26.461899   # N_3
 372 1 3  -0.109873   8.620168  19.956832   0.000000   # C_3
 373 1 3  -0.015030   7.912803  17.339851   0.000000   # C_3
 374 1 5  -0.202650   5.570431  17.741408   0.409357   # N_3
 375 1 3   0.037356   9.556149  18.983197   0.000000   # C_3
 376 1 4   0.044790   8.889128  20.847090   0.000000   # H_
 377 1 3  -0.145418   9.238776  17.657224   0.000000   # C_3
 378 1 3   0.472738  10.295789  16.600211   0.000000   # C_3
 379 1 4   0.028086   7.668050  16.444214   0.000000   # H_
 380 1 4   0.009786  10.451786  19.227950   0.000000   # H_
 381 1 2  -0.667788   9.881590  15.381822   0.000000   # O_3
 382 1 2  -0.668314  11.514178  17.014410   0.000000   # O_3
 383 1 3  -0.014357   5.575541  16.847654   1.582292   # C_3
 384 1 3  -0.008188   7.792847  22.648315  24.990956   # C_3
 385 1 3  -0.078666   4.212720  16.895529   2.211658   # C_3
 386 1 3  -0.086493   9.244155  22.705334  24.438244   # C_3
 387 1 4   0.130109   7.984616  23.558475  26.819884   # H_
 388 1 4   0.171313   5.306850  17.172020  26.460285   # H_
 389 1 3  -0.064974   9.491329  22.314804  22.951164   # C_3
 390 1 4   0.063020   7.288816  21.788450  24.548786   # H_
 391 1 4   0.040521   6.317064  17.192192   2.313056   # H_
 392 1 4   0.039606  10.575238  22.350307  22.762354   # H_
 393 1 3  -0.041055   8.716456  23.240027  21.997700   # C_3
 394 1 4   0.042897   9.090579  21.265053  22.830132   # H_
 395 1 3  -0.059772   3.178031  16.324796   1.225113   # C_3
 396 1 4  -0.008041   3.390241  16.651045   0.176976   # H_
 397 1 3  -0.054528   1.739364  16.750022   1.585250   # C_3
 398 1 4   0.008633   3.243389  15.237660   1.277022   # H_
 399 1 4   0.009122   5.801736  15.785531   1.319787   # H_
 400 1 4   0.066922   7.290430  23.604468  24.702631   # H_
 401 1 4   0.047873   3.944298  17.934522   2.605684   # H_
 402 1 4   0.037133   4.229665  16.196502   3.064530   # H_
 403 1 4   0.076434   9.839902  22.032665  25.043672   # H_
 404 1 4   0.059109   9.628768  23.730610  24.584289   # H_
 405 1 4   0.057679   8.790151  24.292198  22.367252   # H_
 406 1 4   0.043688   7.632816  22.947667  21.997969   # H_
 407 1 3  -0.149661   9.091386  23.223889  20.509814   # C_3
 408 1 4   0.009506   1.626939  16.596984   2.673193   # H_
 409 1 4  -0.035463   1.005910  16.130876   1.052978   # H_
 410 1 3  -0.139259   1.591167  18.226612   1.140121   # C_3
 411 1 4   0.049670   2.020696  18.931825   1.892940   # H_
 412 1 4  -0.018804   0.537920  18.526234   1.003759   # H_
 413 1 4   0.009632   2.097888  18.370506   0.177514   # H_
 414 1 4   0.057494   8.921134  22.188393  20.127084   # H_
 415 1 4   0.068805  10.147592  23.539917  20.322887   # H_
 416 1 4   0.084573   8.415489  23.953309  19.975390   # H_
 417 1 2  -0.603338  24.962178  23.329590   0.000000   # O_3
 418 1 3   0.454773  23.743789  23.743789   0.000000   # C_3
 419 1 2  -0.601896  23.329590  24.962178   0.000000   # O_3
 420 1 3  -0.091620  22.686776  22.686776   0.000000   # C_3
 421 1 3   0.004813  23.004149  21.360803   0.000000   # C_3
 422 1 3  -0.043571  21.360803  23.004149   0.000000   # C_3
 423 1 3  -0.069202  22.068168  20.387168   0.000000   # C_3
 424 1 4   0.034207  23.899786  21.116050   0.000000   # H_
 425 1 3   0.039389  20.387168  22.068168   0.000000   # C_3
 426 1 4   0.066056  21.116050  23.899786   0.000000   # H_
 427 1 3  -0.035784  20.691093  20.691093   0.000000   # C_3
 428 1 3   0.059079  19.652907  19.652907   0.000000   # C_3
 429 1 4   0.028501  22.337128  19.496910   0.000000   # H_
 430 1 3  -0.089073  19.956832  18.275832   0.000000   # C_3
 431 1 5  -0.157332  19.030803  22.584571   0.433026   # N_3
 432 1 3  -0.172749  18.275832  19.956832   0.000000   # C_3
 433 1 3   0.052088  18.983197  17.339851   0.000000   # C_3
 434 1 5  -0.020405  21.323687  17.742484  26.484491   # N_3
 435 1 3   0.094641  17.339851  18.983197   0.000000   # C_3
 436 1 4   0.075192  18.006872  20.847090   0.000000   # H_
 437 1 3  -0.193175  17.657224  17.657224   0.000000   # C_3
 438 1 3   0.489192  16.600211  16.600211   0.000000   # C_3
 439 1 4   0.000727  19.227950  16.444214   0.000000   # H_
 440 1 4  -0.019990  16.444214  19.227950   0.000000   # H_
 441 1 2  -0.672210  17.014410  15.381822   0.000000   # O_3
 442 1 2  -0.673983  15.381822  17.014410   0.000000   # O_3
 443 1 3  -0.023110  21.314811  16.850344  25.309136   # C_3
 444 1 3  -0.027808  19.102077  22.646970   1.904237   # C_3
 445 1 3  -0.055145  22.674673  16.900102  24.677080   # C_3
 446 1 3  -0.074893  17.651038  22.704258   2.456681   # C_3
 447 1 4   0.057103  18.911653  23.558744   0.075309   # H_
 448 1 4  -0.013325  21.591033  17.170944   0.430605   # H_
 449 1 3  -0.071971  17.404402  22.313997   3.944029   # C_3
 450 1 4   0.041847  19.606108  21.787105   2.346138   # H_
 451 1 4   0.067521  20.575709  17.201875  24.579448   # H_
 452 1 4   0.036788  16.320493  22.348962   4.133377   # H_
 453 1 3  -0.037501  18.179813  23.240296   4.896955   # C_3
 454 1 4   0.037594  17.805690  21.264516   4.065061   # H_
 455 1 3  -0.078499  23.716624  16.339589  25.663894   # C_3
 456 1 4   0.089380  23.507911  16.684934  26.704500   # H_
 457 1 3  -0.023232  25.150988  16.772077  25.298647   # C_3
 458 1 4   0.058854  23.645618  15.255142  25.634309   # H_
 459 1 4   0.064530  21.084312  15.787683  25.565993   # H_
 460 1 4   0.048800  19.604225  23.603392   2.193369   # H_
 461 1 4   0.062702  22.937178  17.939632  24.280633   # H_
 462 1 4   0.043411  22.660687  16.199730  23.825284   # H_
 463 1 4   0.032302  17.055292  22.031589   1.851790   # H_
 464 1 4   0.037373  17.265887  23.729803   2.309828   # H_
 465 1 4   0.053056  18.106387  24.292198   4.526328   # H_
 466 1 4   0.040767  19.263184  22.947667   4.896686   # H_
 467 1 3  -0.151105  17.804345  23.225234   6.384572   # C_3
 468 1 4   0.055308  25.261261  16.616618  24.211510   # H_
 469 1 4   0.085081  25.890359  16.161268  25.831456   # H_
 470 1 3  -0.176158  25.291654  18.255122  25.738396   # C_3
 471 1 4   0.098577  24.833346  18.954418  24.995798   # H_
 472 1 4   0.136638  26.342211  18.572495  25.850552   # H_
 473 1 4   0.122554  24.805374  18.392023  26.713645   # H_
 474 1 4   0.057575  17.969487  22.188931   6.767572   # H_
 475 1 4   0.069107  16.749753  23.546372   6.572307   # H_
 476 1 4   0.084644  18.484007  23.951157   6.919265   # H_
 477 1 2  -0.612175  24.962178   3.566410   0.000000   # O_3
 478 1 3   0.482451  23.743789   3.152211   0.000000   # C_3
 479 1 2  -0.672320  23.329590   1.933822   0.000000   # O_3
 480 1 3  -0.164573  22.686776   4.209224   0.000000   # C_3
 481 1 3   0.074095  23.004149   5.535197   0.000000   # C_3
 482 1 3   0.036196  21.360803   3.891851   0.000000   # C_3
 483 1 3  -0.145146  22.068168   6.508832   0.000000   # C_3
 484 1 4   0.016067  23.899786   5.779950   0.000000   # H_
 485 1 3  -0.080510  20.387168   4.827832   0.000000   # C_3
 486 1 4  -0.002029  21.116050   2.996214   0.000000   # H_
 487 1 3   0.038320  20.691093   6.204907   0.000000   # C_3
 488 1 3  -0.015779  19.652907   7.243093   0.000000   # C_3