 (written by mofun)

480 atoms
0 bonds
0 angles
0 dihedrals
0 impropers

5 atom types
   0.000000  20.700400 xlo xhi
   0.000000  20.700400 ylo yhi
   0.000000  20.700400 zlo zhi

Masses

 1 91.2240   # Zr3+4
 2 15.9994   # O_3
 3 12.0107   # C_3
 4 14.0067   # N_3
 5 1.0079   # H_

Pair Coeffs

 1   0.069000   2.783168 # Zr3+4
 2   0.060000   3.118146 # O_3
 3   0.105000   3.430851 # C_3
 4   0.069000   3.260689 # N_3
 5   0.044000   2.571134 # H_

Atoms

 1 1 1   3.166750   2.481771   0.000000   0.000000   # Zr3+4
 2 1 1   3.190450   2.481771  10.350200  10.350200   # Zr3+4
 3 1 1   3.175860  12.831971   0.000000  10.350200   # Zr3+4
 4 1 1   3.180010  12.831971  10.350200   0.000000   # Zr3+4
 5 1 1   3.165180  18.218629   0.000000   0.000000   # Zr3+4
 6 1 1   3.191730  18.218629  10.350200  10.350200   # Zr3+4
 7 1 1   3.178870   7.868429   0.000000  10.350200   # Zr3+4
 8 1 1   3.177530   7.868429  10.350200   0.000000   # Zr3+4
 9 1 1   3.166760   0.000000   2.481771   0.000000   # Zr3+4
 10 1 1   3.144070   0.000000  12.831971  10.350200   # Zr3+4
 11 1 1   3.190460  10.350200   2.481771  10.350200   # Zr3+4
 12 1 1   3.179990  10.350200  12.831971   0.000000   # Zr3+4
 13 1 1   3.165170   0.000000  18.218629   0.000000   # Zr3+4
 14 1 1   3.210540   0.000000   7.868429  10.350200   # Zr3+4
 15 1 1   3.191720  10.350200  18.218629  10.350200   # Zr3+4
 16 1 1   3.177670  10.350200   7.868429   0.000000   # Zr3+4
 17 1 1   3.196610   0.000000   0.000000   2.481771   # Zr3+4
 18 1 1   3.175850   0.000000  10.350200  12.831971   # Zr3+4
 19 1 1   3.144060  10.350200   0.000000  12.831971   # Zr3+4
 20 1 1   3.191010  10.350200  10.350200   2.481771   # Zr3+4
 21 1 1   3.133590   0.000000   0.000000  18.218629   # Zr3+4
 22 1 1   3.178870   0.000000  10.350200   7.868429   # Zr3+4
 23 1 1   3.210540  10.350200   0.000000   7.868429   # Zr3+4
 24 1 1   3.192280  10.350200  10.350200  18.218629   # Zr3+4
 25 1 2  -1.315160   1.161292   9.188908   9.188908   # O_3
 26 1 2  -1.210870  11.511492  19.539108   9.188908   # O_3
 27 1 2  -1.319850  11.511492   9.188908  19.539108   # O_3
 28 1 2  -1.315160   9.188908   1.161292   9.188908   # O_3
 29 1 2  -1.320000   9.188908  11.511492  19.539108   # O_3
 30 1 2  -1.164960  19.539108  19.539108   1.161292   # O_3
 31 1 2  -1.211010  19.539108   9.188908  11.511492   # O_3
 32 1 2  -1.371720   1.161292   1.161292   1.161292   # O_3
 33 1 2  -1.416500  11.511492  11.511492   1.161292   # O_3
 34 1 2  -1.350870  19.539108   1.161292   1.161292   # O_3
 35 1 2  -1.433400  19.539108  11.511492  11.511492   # O_3
 36 1 2  -1.536860   9.188908   1.161292  11.511492   # O_3
 37 1 2  -1.425030   9.188908  11.511492   1.161292   # O_3
 38 1 2  -1.350850   1.161292  19.539108   1.161292   # O_3
 39 1 2  -1.409650   1.161292   9.188908  11.511492   # O_3
 40 1 2  -1.433420  11.511492  19.539108  11.511492   # O_3
 41 1 2  -1.425020  11.511492   9.188908   1.161292   # O_3
 42 1 2  -1.278130  19.539108  19.539108  19.539108   # O_3
 43 1 2  -1.295250  19.539108   9.188908   9.188908   # O_3
 44 1 2  -1.295280   9.188908  19.539108   9.188908   # O_3
 45 1 2  -1.328270   9.188908   9.188908  19.539108   # O_3
 46 1 2  -1.480450   1.161292   1.161292  19.539108   # O_3
 47 1 2  -1.536840   1.161292  11.511492   9.188908   # O_3
 48 1 2  -1.409660  11.511492   1.161292   9.188908   # O_3
 49 1 3   0.552262   3.179581   0.000000  17.520819   # C_3
 50 1 2  -0.721235   3.528590   0.000000  18.727859   # O_3
 51 1 2  -0.777707   1.972541   0.000000  17.171810   # O_3
 52 1 3  -0.184385   4.243582   0.000000  16.456818   # C_3
 53 1 3   0.111241   3.816533   0.000000  15.162836   # C_3
 54 1 4  -0.090292   2.371024   0.174090  14.790229   # N_3
 55 1 5   0.054129   4.580585   0.000000  13.051809   # H_
 56 1 3  -0.018211   4.812636   0.000000  14.167768   # C_3
 57 1 3  -0.140750   6.106618   0.000000  14.593782   # C_3
 58 1 3   0.003107   6.532632   0.000000  15.887764   # C_3
 59 1 3   0.035072   5.537564   0.000000  16.883867   # C_3
 60 1 5   0.048075   5.769615   0.000000  17.999826   # H_
 61 1 5   0.035009   7.648591   0.000000  16.119815   # H_
 62 1 2  -0.786947   8.377452   0.000000  13.878790   # O_3
 63 1 3   0.534037   7.170619   0.000000  13.529781   # C_3
 64 1 2  -0.770656   6.821610   0.000000  12.322741   # O_3
 65 1 4  -0.052404   2.116616   0.149871  13.596230   # N_3
 66 1 4  -0.084672   1.836332   0.111989  12.439698   # N_3
 67 1 3   0.566209   3.179581  10.350200   7.170619   # C_3
 68 1 2  -0.660141   3.528590  10.350200   8.377659   # O_3
 69 1 2  -0.652822   1.972541  10.350200   6.821610   # O_3
 70 1 3  -0.180057   4.243582  10.350200   6.106618   # C_3
 71 1 3   0.128914   3.816533  10.350200   4.812636   # C_3
 72 1 4  -0.076149   2.370817  10.525325   4.440236   # N_3
 73 1 5   0.065016   4.580585  10.350200   2.701609   # H_
 74 1 3  -0.014005   4.812636  10.350200   3.817568   # C_3
 75 1 3  -0.122318   6.106618  10.350200   4.243582   # C_3
 76 1 3   0.004681   6.532632  10.350200   5.537564   # C_3
 77 1 3   0.045016   5.537564  10.350200   6.533667   # C_3
 78 1 5   0.039564   5.769615  10.350200   7.649626   # H_
 79 1 5   0.048391   7.648591  10.350200   5.769615   # H_
 80 1 2  -0.737353   8.377452  10.350200   3.528590   # O_3
 81 1 3   0.533053   7.170619  10.350200   3.179581   # C_3
 82 1 2  -0.740924   6.821610  10.350200   1.972541   # O_3
 83 1 4  -0.037142   2.115167  10.497794   3.246444   # N_3
 84 1 4  -0.066520   1.834055  10.456600   2.090119   # N_3
 85 1 3   0.559821  13.529781   0.000000   7.170619   # C_3
 86 1 2  -0.705082  13.878790   0.000000   8.377659   # O_3
 87 1 2  -0.681664  12.322741   0.000000   6.821610   # O_3
 88 1 3  -0.192938  14.593782   0.000000   6.106618   # C_3
 89 1 3   0.115478  14.166733   0.000000   4.812636   # C_3
 90 1 4  -0.086951  12.721431   0.178851   4.440650   # N_3
 91 1 5   0.049164  14.930785   0.000000   2.701609   # H_
 92 1 3  -0.021573  15.162629   0.000000   3.817568   # C_3
 93 1 3  -0.120470  16.456611   0.000000   4.243582   # C_3
 94 1 3  -0.001130  16.882832   0.000000   5.537564   # C_3
 95 1 3   0.041434  15.887764   0.000000   6.533667   # C_3
 96 1 5   0.027241  16.119815   0.000000   7.649626   # H_
 97 1 5   0.058808  17.998791   0.000000   5.769615   # H_
 98 1 2  -0.625733  18.727652   0.000000   3.528590   # O_3
 99 1 3   0.531560  17.520612   0.000000   3.179581   # C_3
 100 1 2  -0.695134  17.171603   0.000000   1.972541   # O_3
 101 1 4  -0.047312  12.466195   0.151734   3.247065   # N_3
 102 1 4  -0.085766  12.185704   0.110747   2.090740   # N_3
 103 1 3   0.549115  13.529781  10.350200  17.520819   # C_3
 104 1 2  -0.673734  13.878790  10.350200  18.727859   # O_3
 105 1 2  -0.713259  12.322741  10.350200  17.171810   # O_3
 106 1 3  -0.167933  14.593782  10.350200  16.456818   # C_3
 107 1 3   0.134867  14.166733  10.350200  15.162836   # C_3
 108 1 4  -0.069129  12.721431  10.528223  14.791057   # N_3
 109 1 5   0.078095  14.930785  10.350200  13.051809   # H_
 110 1 3  -0.012957  15.162629  10.350200  14.167768   # C_3
 111 1 3  -0.098301  16.456611  10.350200  14.593782   # C_3
 112 1 3   0.017600  16.882832  10.350200  15.887764   # C_3
 113 1 3   0.058985  15.887764  10.350200  16.883867   # C_3
 114 1 5   0.079157  16.119815  10.350200  17.999826   # H_
 115 1 5   0.089593  17.998791  10.350200  16.119815   # H_
 116 1 2  -0.586768  18.727652  10.350200  13.878790   # O_3
 117 1 3   0.532166  17.520612  10.350200  13.529781   # C_3
 118 1 2  -0.636138  17.171603  10.350200  12.322741   # O_3
 119 1 4  -0.028673  12.466816  10.504211  13.597265   # N_3
 120 1 4  -0.033913  12.187153  10.465915  12.440733   # N_3
 121 1 3   0.525353  17.520819   0.000000  17.520819   # C_3
 122 1 2  -0.707163  17.171810   0.000000  18.727859   # O_3
 123 1 2  -0.716984  18.727859   0.000000  17.171810   # O_3
 124 1 3  -0.133008  16.456818   0.000000  16.456818   # C_3
 125 1 3   0.020371  16.883867   0.000000  15.162836   # C_3
 126 1 4   0.068998  18.334137  20.655687  14.754831   # N_3
 127 1 5   0.029220  16.119815   0.000000  13.051809   # H_
 128 1 3   0.015469  15.887971   0.000000  14.167768   # C_3
 129 1 3  -0.159973  14.593989   0.000000  14.593782   # C_3
 130 1 3   0.022236  14.167768   0.000000  15.887764   # C_3
 131 1 3   0.011990  15.162836   0.000000  16.883867   # C_3
 132 1 5   0.058757  14.930785   0.000000  17.999826   # H_
 133 1 5   0.031461  13.051809   0.000000  16.119815   # H_
 134 1 2  -0.795369  12.322948   0.000000  13.878790   # O_3
 135 1 3   0.541099  13.529988   0.000000  13.529781   # C_3
 136 1 2  -0.786079  13.878997   0.000000  12.322741   # O_3
 137 1 4   0.028030  18.593306  19.975886  13.763903   # N_3
 138 1 4   0.036717  18.891392  19.314715  12.812099   # N_3
 139 1 3   0.545822  17.520819  10.350200   7.170619   # C_3
 140 1 2  -0.721283  17.171810  10.350200   8.377659   # O_3
 141 1 2  -0.658516  18.727859  10.350200   6.821610   # O_3
 142 1 3  -0.164122  16.456818  10.350200   6.106618   # C_3
 143 1 3   0.135975  16.883867  10.350200   4.812636   # C_3
 144 1 4  -0.041988  18.334758  10.307557   4.405459   # N_3
 145 1 5   0.064949  16.119815  10.350200   2.701609   # H_
 146 1 3  -0.006052  15.887971  10.350200   3.817568   # C_3
 147 1 3  -0.119843  14.593989  10.350200   4.243582   # C_3
 148 1 3   0.014342  14.167768  10.350200   5.537564   # C_3
 149 1 3   0.042903  15.162836  10.350200   6.533667   # C_3
 150 1 5   0.056440  14.930785  10.350200   7.649626   # H_
 151 1 5   0.051375  13.051809  10.350200   5.769615   # H_
 152 1 2  -0.653014  12.322948  10.350200   3.528590   # O_3
 153 1 3   0.545108  13.529988  10.350200   3.179581   # C_3
 154 1 2  -0.658324  13.878997  10.350200   1.972541   # O_3
 155 1 4  -0.008644  18.596204   9.628170   3.414945   # N_3
 156 1 4  -0.019002  18.896567   8.967827   2.463348   # N_3
 157 1 3   0.538747   7.170619   0.000000   7.170619   # C_3
 158 1 2  -0.695453   6.821610   0.000000   8.377659   # O_3
 159 1 2  -0.692067   8.377659   0.000000   6.821610   # O_3
 160 1 3  -0.152176   6.106618   0.000000   6.106618   # C_3
 161 1 3   0.006582   6.533667   0.000000   4.812636   # C_3
 162 1 4   0.038249   7.985593  20.663553   4.406701   # N_3
 163 1 5   0.015101   5.769615   0.000000   2.701609   # H_
 164 1 3   0.011416   5.537564   0.000000   3.817568   # C_3
 165 1 3  -0.161091   4.243582   0.000000   4.243582   # C_3
 166 1 3   0.013962   3.817568   0.000000   5.537564   # C_3
 167 1 3   0.005975   4.812636   0.000000   6.533667   # C_3
 168 1 5   0.031197   4.580585   0.000000   7.649626   # H_
 169 1 5   0.015793   2.701609   0.000000   5.769615   # H_
 170 1 2  -0.701839   1.972748   0.000000   3.528590   # O_3
 171 1 3   0.549277   3.179581   0.000000   3.179581   # C_3
 172 1 2  -0.711055   3.528590   0.000000   1.972541   # O_3
 173 1 4   0.000936   8.252007  19.990790   3.413289   # N_3
 174 1 4  -0.023974   8.556924  19.337072   2.458380   # N_3
 175 1 3   0.554342   7.170619  10.350200  17.520819   # C_3
 176 1 2  -0.594968   6.821610  10.350200  18.727859   # O_3
 177 1 2  -0.635630   8.377659  10.350200  17.171810   # O_3
 178 1 3  -0.159740   6.106618  10.350200  16.456818   # C_3
 179 1 3   0.125741   6.533667  10.350200  15.162836   # C_3
 180 1 4  -0.069355   7.984972  10.310248  14.756280   # N_3
 181 1 5   0.062012   5.769615  10.350200  13.051809   # H_
 182 1 3  -0.008120   5.537564  10.350200  14.167768   # C_3
 183 1 3  -0.126503   4.243582  10.350200  14.593782   # C_3
 184 1 3   0.018478   3.817568  10.350200  15.887764   # C_3
 185 1 3   0.045208   4.812636  10.350200  16.883867   # C_3
 186 1 5   0.076737   4.580585  10.350200  17.999826   # H_
 187 1 5   0.050556   2.701609  10.350200  16.119815   # H_
 188 1 2  -0.746417   1.972748  10.350200  13.878790   # O_3
 189 1 3   0.536635   3.179581  10.350200  13.529781   # C_3
 190 1 2  -0.738763   3.528590  10.350200  12.322741   # O_3
 191 1 4  -0.031030   8.248695   9.633759  13.764524   # N_3
 192 1 4  -0.054622   8.550921   8.976314  12.811478   # N_3
 193 1 3   0.548969  17.520819   3.179581   0.000000   # C_3
 194 1 2  -0.713988  18.727859   3.528590   0.000000   # O_3
 195 1 2  -0.764714  17.171810   1.972541   0.000000   # O_3
 196 1 3  -0.181220  16.456818   4.243582   0.000000   # C_3
 197 1 3   0.112485  15.162836   3.816533   0.000000   # C_3
 198 1 4  -0.088828  14.790436   2.371231   0.178230   # N_3
 199 1 5   0.056067  13.051809   4.580585   0.000000   # H_
 200 1 3  -0.016533  14.167768   4.812636   0.000000   # C_3
 201 1 3  -0.134747  14.593782   6.106618   0.000000   # C_3
 202 1 3   0.005218  15.887764   6.532632   0.000000   # C_3
 203 1 3   0.036555  16.883867   5.537564   0.000000   # C_3
 204 1 5   0.051971  17.999826   5.769615   0.000000   # H_
 205 1 5   0.037869  16.119815   7.648591   0.000000   # H_
 206 1 2  -0.694382  13.878790   8.377452   0.000000   # O_3
 207 1 3   0.539820  13.529781   7.170619   0.000000   # C_3
 208 1 2  -0.689645  12.322741   6.821610   0.000000   # O_3
 209 1 4  -0.050892  13.596644   2.116409   0.151527   # N_3
 210 1 4  -0.082115  12.440112   1.835918   0.110540   # N_3
 211 1 3   0.552187  17.520819  13.529781  10.350200   # C_3
 212 1 2  -0.681043  18.727859  13.878790  10.350200   # O_3
 213 1 2  -0.713957  17.171810  12.322741  10.350200   # O_3
 214 1 3  -0.167569  16.456818  14.593782  10.350200   # C_3
 215 1 3   0.134800  15.162836  14.166733  10.350200   # C_3
 216 1 4  -0.067810  14.790436  12.721431  10.528016   # N_3
 217 1 5   0.078118  13.051809  14.930785  10.350200   # H_
 218 1 3  -0.012523  14.167768  15.162629  10.350200   # C_3
 219 1 3  -0.098017  14.593782  16.456611  10.350200   # C_3
 220 1 3   0.018375  15.887764  16.882832  10.350200   # C_3
 221 1 3   0.060228  16.883867  15.887764  10.350200   # C_3
 222 1 5   0.081443  17.999826  16.119815  10.350200   # H_
 223 1 5   0.090510  16.119815  17.998791  10.350200   # H_
 224 1 2  -0.586401  13.878790  18.727652  10.350200   # O_3
 225 1 3   0.532378  13.529781  17.520612  10.350200   # C_3
 226 1 2  -0.636039  12.322741  17.171603  10.350200   # O_3
 227 1 4  -0.028711  13.596644  12.466402  10.501313   # N_3
 228 1 4  -0.033869  12.439905  12.186532  10.460326   # N_3
 229 1 3   0.566291   7.170619   3.179581  10.350200   # C_3
 230 1 2  -0.660162   8.377659   3.528590  10.350200   # O_3
 231 1 2  -0.652803   6.821610   1.972541  10.350200   # O_3
 232 1 3  -0.179988   6.106618   4.243582  10.350200   # C_3
 233 1 3   0.129525   4.812636   3.816533  10.350200   # C_3
 234 1 4  -0.076166   4.440857   2.371438  10.528844   # N_3
 235 1 5   0.065076   2.701609   4.580585  10.350200   # H_
 236 1 3  -0.013472   3.817568   4.812636  10.350200   # C_3
 237 1 3  -0.117556   4.243582   6.106618  10.350200   # C_3
 238 1 3   0.005291   5.537564   6.532632  10.350200   # C_3
 239 1 3   0.045480   6.533667   5.537564  10.350200   # C_3
 240 1 5   0.039598   7.649626   5.769615  10.350200   # H_
 241 1 5   0.048906   5.769615   7.648591  10.350200   # H_
 242 1 2  -0.653826   3.528590   8.377452  10.350200   # O_3
 243 1 3   0.539406   3.179581   7.170619  10.350200   # C_3
 244 1 2  -0.647574   1.972541   6.821610  10.350200   # O_3
 245 1 4  -0.037028   3.247065   2.117444  10.507316   # N_3
 246 1 4  -0.067059   2.090119   1.838817  10.471504   # N_3
 247 1 3   0.562617   7.170619  13.529781   0.000000   # C_3
 248 1 2  -0.701106   8.377659  13.878790   0.000000   # O_3
 249 1 2  -0.689121   6.821610  12.322741   0.000000   # O_3
 250 1 3  -0.193170   6.106618  14.593782   0.000000   # C_3
 251 1 3   0.115921   4.812636  14.166733   0.000000   # C_3
 252 1 4  -0.086375   4.440029  12.721017   0.174297   # N_3
 253 1 5   0.048990   2.701609  14.930785   0.000000   # H_
 254 1 3  -0.022240   3.817568  15.162629   0.000000   # C_3
 255 1 3  -0.124119   4.243582  16.456611   0.000000   # C_3
 256 1 3  -0.001276   5.537564  16.882832   0.000000   # C_3
 257 1 3   0.041706   6.533667  15.887764   0.000000   # C_3
 258 1 5   0.028344   7.649626  16.119815   0.000000   # H_
 259 1 5   0.059437   5.769615  17.998791   0.000000   # H_
 260 1 2  -0.708162   3.528590  18.727652   0.000000   # O_3
 261 1 3   0.526077   3.179581  17.520612   0.000000   # C_3
 262 1 2  -0.768940   1.972541  17.171603   0.000000   # O_3
 263 1 4  -0.046964   3.246237  12.465574   0.147180   # N_3
 264 1 4  -0.085290   2.089705  12.184669   0.106814   # N_3
 265 1 3   0.531840  17.520819  17.520819   0.000000   # C_3
 266 1 2  -0.624087  18.727859  17.171810   0.000000   # O_3
 267 1 2  -0.627046  17.171810  18.727859   0.000000   # O_3
 268 1 3  -0.128910  16.456818  16.456818   0.000000   # C_3
 269 1 3   0.029225  15.162836  16.883867   0.000000   # C_3
 270 1 4   0.063003  14.756280  18.335586  20.662311   # N_3
 271 1 5   0.032370  13.051809  16.119815   0.000000   # H_
 272 1 3   0.014548  14.167768  15.887971   0.000000   # C_3
 273 1 3  -0.155619  14.593782  14.593989   0.000000   # C_3
 274 1 3   0.022723  15.887764  14.167768   0.000000   # C_3
 275 1 3   0.015816  16.883867  15.162836   0.000000   # C_3
 276 1 5   0.062631  17.999826  14.930785   0.000000   # H_
 277 1 5   0.034366  16.119815  13.051809   0.000000   # H_
 278 1 2  -0.773260  13.878790  12.322948   0.000000   # O_3
 279 1 3   0.538078  13.529781  13.529988   0.000000   # C_3
 280 1 2  -0.773824  12.322741  13.878997   0.000000   # O_3
 281 1 4   0.025488  13.762040  18.600551  19.989962   # N_3
 282 1 4   0.033897  12.806509  18.904019  19.336865   # N_3
 283 1 3   0.550598  17.520819   7.170619  10.350200   # C_3
 284 1 2  -0.580641  18.727859   6.821610  10.350200   # O_3
 285 1 2  -0.635207  17.171810   8.377659  10.350200   # O_3
 286 1 3  -0.157605  16.456818   6.106618  10.350200   # C_3
 287 1 3   0.125462  15.162836   6.533667  10.350200   # C_3
 288 1 4  -0.069022  14.756694   7.985386  10.312318   # N_3
 289 1 5   0.062171  13.051809   5.769615  10.350200   # H_
 290 1 3  -0.007412  14.167768   5.537564  10.350200   # C_3
 291 1 3  -0.126598  14.593782   4.243582  10.350200   # C_3
 292 1 3   0.019433  15.887764   3.817568  10.350200   # C_3
 293 1 3   0.044783  16.883867   4.812636  10.350200   # C_3
 294 1 5   0.078586  17.999826   4.580585  10.350200   # H_
 295 1 5   0.051079  16.119815   2.701609  10.350200   # H_
 296 1 2  -0.746218  13.878790   1.972748  10.350200   # O_3
 297 1 3   0.536896  13.529781   3.179581  10.350200   # C_3
 298 1 2  -0.738621  12.322741   3.528590  10.350200   # O_3
 299 1 4  -0.030827  13.763282   8.251179   9.639348   # N_3
 300 1 4  -0.054436  12.808165   8.554854   8.985423   # N_3
 301 1 3   0.545350   7.170619  17.520819  10.350200   # C_3
 302 1 2  -0.721513   8.377659  17.171810  10.350200   # O_3
 303 1 2  -0.658861   6.821610  18.727859  10.350200   # O_3
 304 1 3  -0.164402   6.106618  16.456818  10.350200   # C_3
 305 1 3   0.134388   4.812636  16.883867  10.350200   # C_3
 306 1 4  -0.042721   4.405873  18.334965  10.308385   # N_3
 307 1 5   0.063347   2.701609  16.119815  10.350200   # H_
 308 1 3  -0.006807   3.817568  15.887971  10.350200   # C_3
 309 1 3  -0.125603   4.243582  14.593989  10.350200   # C_3
 310 1 3   0.013478   5.537564  14.167768  10.350200   # C_3
 311 1 3   0.041698   6.533667  15.162836  10.350200   # C_3
 312 1 5   0.056134   7.649626  14.930785  10.350200   # H_
 313 1 5   0.050446   5.769615  13.051809  10.350200   # H_
 314 1 2  -0.738536   3.528590  12.322948  10.350200   # O_3
 315 1 3   0.539077   3.179581  13.529988  10.350200   # C_3
 316 1 2  -0.755074   1.972541  13.878997  10.350200   # O_3
 317 1 4  -0.008981   3.416601  18.597446   9.627963   # N_3
 318 1 4  -0.019952   2.465832  18.898430   8.966585   # N_3
 319 1 3   0.534037   7.170619   7.170619   0.000000   # C_3
 320 1 2  -0.776931   8.377659   6.821610   0.000000   # O_3
 321 1 2  -0.782221   6.821610   8.377659   0.000000   # O_3
 322 1 3  -0.158192   6.106618   6.106618   0.000000   # C_3
 323 1 3   0.013623   4.812636   6.533667   0.000000   # C_3
 324 1 4   0.030123   4.405459   7.984558  20.658171   # N_3
 325 1 5   0.017357   2.701609   5.769615   0.000000   # H_
 326 1 3   0.010154   3.817568   5.537564   0.000000   # C_3
 327 1 3  -0.159856   4.243582   4.243582   0.000000   # C_3
 328 1 3   0.013928   5.537564   3.817568   0.000000   # C_3
 329 1 3   0.007255   6.533667   4.812636   0.000000   # C_3
 330 1 5   0.031917   7.649626   4.580585   0.000000   # H_
 331 1 5   0.017177   5.769615   2.701609   0.000000   # H_
 332 1 2  -0.708106   3.528590   1.972748   0.000000   # O_3
 333 1 3   0.552301   3.179581   3.179581   0.000000   # C_3
 334 1 2  -0.708281   1.972541   3.528590   0.000000   # O_3
 335 1 4  -0.001363   3.414531   8.246418  19.979405   # N_3
 336 1 4  -0.028024   2.462520   8.546781  19.319890   # N_3
 337 1 3   0.554230   0.000000  17.520819   3.179581   # C_3
 338 1 2  -0.631696   0.000000  18.727859   3.528590   # O_3
 339 1 2  -0.691189   0.000000  17.171810   1.972541   # O_3
 340 1 3  -0.177562   0.000000  16.456818   4.243582   # C_3
 341 1 3   0.112044   0.000000  15.162836   3.816533   # C_3
 342 1 4  -0.089283   0.175125  14.790436   2.370817   # N_3
 343 1 5   0.054564   0.000000  13.051809   4.580585   # H_
 344 1 3  -0.016768   0.000000  14.167768   4.812636   # C_3
 345 1 3  -0.140518   0.000000  14.593782   6.106618   # C_3
 346 1 3   0.004971   0.000000  15.887764   6.532632   # C_3
 347 1 3   0.035584   0.000000  16.883867   5.537564   # C_3
 348 1 5   0.051115   0.000000  17.999826   5.769615   # H_
 349 1 5   0.035863   0.000000  16.119815   7.648591   # H_
 350 1 2  -0.786608   0.000000  13.878790   8.377452   # O_3
 351 1 3   0.534573   0.000000  13.529781   7.170619   # C_3
 352 1 2  -0.770374   0.000000  12.322741   6.821610   # O_3
 353 1 4  -0.051210   0.147387  13.596644   2.115374   # N_3
 354 1 4  -0.083346   0.106193  12.440319   1.834055   # N_3
 355 1 3   0.559361   0.000000   7.170619  13.529781   # C_3
 356 1 2  -0.705231   0.000000   8.377659  13.878790   # O_3
 357 1 2  -0.681803   0.000000   6.821610  12.322741   # O_3
 358 1 3  -0.192712   0.000000   6.106618  14.593782   # C_3
 359 1 3   0.113691   0.000000   4.812636  14.166733   # C_3
 360 1 4  -0.087187   0.174918   4.439822  12.720810   # N_3
 361 1 5   0.047470   0.000000   2.701609  14.930785   # H_
 362 1 3  -0.021338   0.000000   3.817568  15.162629   # C_3
 363 1 3  -0.127548   0.000000   4.243582  16.456611   # C_3
 364 1 3  -0.001035   0.000000   5.537564  16.882832   # C_3
 365 1 3   0.039740   0.000000   6.533667  15.887764   # C_3
 366 1 5   0.026712   0.000000   7.649626  16.119815   # H_
 367 1 5   0.056091   0.000000   5.769615  17.998791   # H_
 368 1 2  -0.715116   0.000000   3.528590  18.727652   # O_3
 369 1 3   0.529945   0.000000   3.179581  17.520612   # C_3
 370 1 2  -0.781771   0.000000   1.972541  17.171603   # O_3
 371 1 4  -0.047963   0.140556   3.246237  12.464125   # N_3
 372 1 4  -0.087939   0.093152   2.090119  12.181564   # N_3
 373 1 3   0.551772  10.350200  17.520819  13.529781   # C_3
 374 1 2  -0.681579  10.350200  18.727859  13.878790   # O_3
 375 1 2  -0.714199  10.350200  17.171810  12.322741   # O_3
 376 1 3  -0.168147  10.350200  16.456818  14.593782   # C_3
 377 1 3   0.133717  10.350200  15.162836  14.166733   # C_3
 378 1 4  -0.068100  10.526774  14.790436  12.721431   # N_3
 379 1 5   0.077295  10.350200  13.051809  14.930785   # H_
 380 1 3  -0.013843  10.350200  14.167768  15.162629   # C_3
 381 1 3  -0.103047  10.350200  14.593782  16.456611   # C_3
 382 1 3   0.016437  10.350200  15.887764  16.882832   # C_3
 383 1 3   0.058675  10.350200  16.883867  15.887764   # C_3
 384 1 5   0.080255  10.350200  17.999826  16.119815   # H_
 385 1 5   0.087497  10.350200  16.119815  17.998791   # H_
 386 1 2  -0.667361  10.350200  13.878790  18.727652   # O_3
 387 1 3   0.523422  10.350200  13.529781  17.520612   # C_3
 388 1 2  -0.713955  10.350200  12.322741  17.171603   # O_3
 389 1 4  -0.029110  10.500899  13.596644  12.466816   # N_3
 390 1 4  -0.034270  10.460947  12.439905  12.186739   # N_3
 391 1 3   0.556635  10.350200   7.170619   3.179581   # C_3
 392 1 2  -0.743752  10.350200   8.377659   3.528590   # O_3
 393 1 2  -0.736716  10.350200   6.821610   1.972541   # O_3
 394 1 3  -0.183665  10.350200   6.106618   4.243582   # C_3
 395 1 3   0.127889  10.350200   4.812636   3.816533   # C_3
 396 1 4  -0.076050  10.529258   4.440650   2.371438   # N_3
 397 1 5   0.064856  10.350200   2.701609   4.580585   # H_
 398 1 3  -0.013686  10.350200   3.817568   4.812636   # C_3
 399 1 3  -0.117959  10.350200   4.243582   6.106618   # C_3
 400 1 3   0.005100  10.350200   5.537564   6.532632   # C_3
 401 1 3   0.044252  10.350200   6.533667   5.537564   # C_3
 402 1 5   0.039171  10.350200   7.649626   5.769615   # H_
 403 1 5   0.048822  10.350200   5.769615   7.648591   # H_
 404 1 2  -0.653825  10.350200   3.528590   8.377452   # O_3
 405 1 3   0.539396  10.350200   3.179581   7.170619   # C_3
 406 1 2  -0.647650  10.350200   1.972541   6.821610   # O_3
 407 1 4  -0.037199  10.506074   3.246858   2.117444   # N_3
 408 1 4  -0.066422  10.468606   2.090119   1.838403   # N_3
 409 1 3   0.525155   0.000000  17.520819  17.520819   # C_3
 410 1 2  -0.713286   0.000000  18.727859  17.171810   # O_3
 411 1 2  -0.711309   0.000000  17.171810  18.727859   # O_3
 412 1 3  -0.133010   0.000000  16.456818  16.456818   # C_3
 413 1 3   0.019019   0.000000  15.162836  16.883867   # C_3
 414 1 4   0.067088  20.658378  14.755659  18.334758   # N_3
 415 1 5   0.028450   0.000000  13.051809  16.119815   # H_
 416 1 3   0.015238   0.000000  14.167768  15.887971   # C_3
 417 1 3  -0.160331   0.000000  14.593782  14.593989   # C_3
 418 1 3   0.022430   0.000000  15.887764  14.167768   # C_3
 419 1 3   0.012243   0.000000  16.883867  15.162836   # C_3
 420 1 5   0.060195   0.000000  17.999826  14.930785   # H_
 421 1 5   0.031937   0.000000  16.119815  13.051809   # H_
 422 1 2  -0.795334   0.000000  13.878790  12.322948   # O_3
 423 1 3   0.540993   0.000000  13.529781  13.529988   # C_3
 424 1 2  -0.786410   0.000000  12.322741  13.878997   # O_3
 425 1 4   0.026250  19.979819  13.764938  18.596825   # N_3
 426 1 4   0.033187  19.320304  12.812720  18.897395   # N_3
 427 1 3   0.538752   0.000000   7.170619   7.170619   # C_3
 428 1 2  -0.695523   0.000000   8.377659   6.821610   # O_3
 429 1 2  -0.691998   0.000000   6.821610   8.377659   # O_3
 430 1 3  -0.152226   0.000000   6.106618   6.106618   # C_3
 431 1 3   0.006804   0.000000   4.812636   6.533667   # C_3
 432 1 4   0.038285  20.663967   4.406908   7.985800   # N_3
 433 1 5   0.014963   0.000000   2.701609   5.769615   # H_
 434 1 3   0.011360   0.000000   3.817568   5.537564   # C_3
 435 1 3  -0.161074   0.000000   4.243582   4.243582   # C_3
 436 1 3   0.013959   0.000000   5.537564   3.817568   # C_3
 437 1 3   0.005877   0.000000   6.533667   4.812636   # C_3
 438 1 5   0.031189   0.000000   7.649626   4.580585   # H_
 439 1 5   0.016070   0.000000   5.769615   2.701609   # H_
 440 1 2  -0.710754   0.000000   3.528590   1.972748   # O_3
 441 1 3   0.549243   0.000000   3.179581   3.179581   # C_3
 442 1 2  -0.702103   0.000000   1.972541   3.528590   # O_3
 443 1 4   0.000850  19.992239   3.412875   8.252835   # N_3
 444 1 4  -0.024753  19.339763   2.457344   8.557959   # N_3
 445 1 3   0.550867  10.350200  17.520819   7.170619   # C_3
 446 1 2  -0.580369  10.350200  18.727859   6.821610   # O_3
 447 1 2  -0.635122  10.350200  17.171810   8.377659   # O_3
 448 1 3  -0.157191  10.350200  16.456818   6.106618   # C_3
 449 1 3   0.126143  10.350200  15.162836   6.533667   # C_3
 450 1 4  -0.068843  10.311490  14.756280   7.985179   # N_3
 451 1 5   0.062785  10.350200  13.051809   5.769615   # H_
 452 1 3  -0.006239  10.350200  14.167768   5.537564   # C_3
 453 1 3  -0.122060  10.350200  14.593782   4.243582   # C_3
 454 1 3   0.020905  10.350200  15.887764   3.817568   # C_3
 455 1 3   0.045814  10.350200  16.883867   4.812636   # C_3
 456 1 5   0.079178  10.350200  17.999826   4.580585   # H_
 457 1 5   0.052513  10.350200  16.119815   2.701609   # H_
 458 1 2  -0.659204  10.350200  13.878790   1.972748   # O_3
 459 1 3   0.546087  10.350200  13.529781   3.179581   # C_3
 460 1 2  -0.653181  10.350200  12.322741   3.528590   # O_3
 461 1 4  -0.030803   9.637899  13.762868   8.249730   # N_3
 462 1 4  -0.054490   8.983353  12.807958   8.552577   # N_3
 463 1 3   0.555008  10.350200   7.170619  17.520819   # C_3
 464 1 2  -0.643192  10.350200   8.377659  17.171810   # O_3
 465 1 2  -0.584970  10.350200   6.821610  18.727859   # O_3
 466 1 3  -0.161451  10.350200   6.106618  16.456818   # C_3
 467 1 3   0.135234  10.350200   4.812636  16.883867   # C_3
 468 1 4  -0.043763  10.311490   4.406080  18.335379   # N_3
 469 1 5   0.063146  10.350200   2.701609  16.119815   # H_
 470 1 3  -0.006556  10.350200   3.817568  15.887971   # C_3
 471 1 3  -0.125191  10.350200   4.243582  14.593989   # C_3
 472 1 3   0.013851  10.350200   5.537564  14.167768   # C_3
 473 1 3   0.043169  10.350200   6.533667  15.162836   # C_3
 474 1 5   0.056704  10.350200   7.649626  14.930785   # H_
 475 1 5   0.050774  10.350200   5.769615  13.051809   # H_
 476 1 2  -0.738395  10.350200   3.528590  12.322948   # O_3
 477 1 3   0.539207  10.350200   3.179581  13.529988   # C_3
 478 1 2  -0.755080  10.350200   1.972541  13.878997   # O_3
 479 1 4  -0.010562   9.637278   3.413082  18.599930   # N_3
 480 1 4  -0.023047   8.982111   2.458794  18.902984   # N_3
