 (written by mofun)

912 atoms
0 bonds
0 angles
0 dihedrals
0 impropers

4 atom types
   0.000000  20.700400 xlo xhi
   0.000000  20.700400 ylo yhi
   0.000000  20.700400 zlo zhi

Masses

 1 91.2240   # Zr3+4
 2 15.9994   # O_3
 3 12.0107   # C_3
 4 1.0079   # H_

Pair Coeffs

 1   0.069000   2.783168 # Zr3+4
 2   0.060000   3.118146 # O_3
 3   0.105000   3.430851 # C_3
 4   0.044000   2.571134 # H_

Atoms

 1 1 1   3.173510   2.481771   0.000000   0.000000   # Zr3+4
 2 1 1   3.190570   2.481771  10.350200  10.350200   # Zr3+4
 3 1 1   3.180440  12.831971   0.000000  10.350200   # Zr3+4
 4 1 1   3.183230  12.831971  10.350200   0.000000   # Zr3+4
 5 1 1   3.173530  18.218629   0.000000   0.000000   # Zr3+4
 6 1 1   3.191200  18.218629  10.350200  10.350200   # Zr3+4
 7 1 1   3.182600   7.868429   0.000000  10.350200   # Zr3+4
 8 1 1   3.182120   7.868429  10.350200   0.000000   # Zr3+4
 9 1 1   3.173930   0.000000   2.481771   0.000000   # Zr3+4
 10 1 1   3.147830   0.000000  12.831971  10.350200   # Zr3+4
 11 1 1   3.190610  10.350200   2.481771  10.350200   # Zr3+4
 12 1 1   3.183290  10.350200  12.831971   0.000000   # Zr3+4
 13 1 1   3.173730   0.000000  18.218629   0.000000   # Zr3+4
 14 1 1   3.215120   0.000000   7.868429  10.350200   # Zr3+4
 15 1 1   3.191390  10.350200  18.218629  10.350200   # Zr3+4
 16 1 1   3.181710  10.350200   7.868429   0.000000   # Zr3+4
 17 1 1   3.205420   0.000000   0.000000   2.481771   # Zr3+4
 18 1 1   3.180260   0.000000  10.350200  12.831971   # Zr3+4
 19 1 1   3.147800  10.350200   0.000000  12.831971   # Zr3+4
 20 1 1   3.191190  10.350200  10.350200   2.481771   # Zr3+4
 21 1 1   3.140730   0.000000   0.000000  18.218629   # Zr3+4
 22 1 1   3.182460   0.000000  10.350200   7.868429   # Zr3+4
 23 1 1   3.215150  10.350200   0.000000   7.868429   # Zr3+4
 24 1 1   3.191790  10.350200  10.350200  18.218629   # Zr3+4
 25 1 2  -1.305840   1.161292   9.188908   9.188908   # O_3
 26 1 2  -1.235680  11.511492  19.539108   9.188908   # O_3
 27 1 2  -1.345600  11.511492   9.188908  19.539108   # O_3
 28 1 2  -1.305920   9.188908   1.161292   9.188908   # O_3
 29 1 2  -1.345160   9.188908  11.511492  19.539108   # O_3
 30 1 2  -1.204290  19.539108  19.539108   1.161292   # O_3
 31 1 2  -1.234990  19.539108   9.188908  11.511492   # O_3
 32 1 2  -1.343210   1.161292   1.161292   1.161292   # O_3
 33 1 2  -1.410300  11.511492  11.511492   1.161292   # O_3
 34 1 2  -1.364080  19.539108   1.161292   1.161292   # O_3
 35 1 2  -1.461650  19.539108  11.511492  11.511492   # O_3
 36 1 2  -1.530870   9.188908   1.161292  11.511492   # O_3
 37 1 2  -1.418560   9.188908  11.511492   1.161292   # O_3
 38 1 2  -1.364620   1.161292  19.539108   1.161292   # O_3
 39 1 2  -1.403170   1.161292   9.188908  11.511492   # O_3
 40 1 2  -1.465050  11.511492  19.539108  11.511492   # O_3
 41 1 2  -1.418860  11.511492   9.188908   1.161292   # O_3
 42 1 2  -1.355840  19.539108  19.539108  19.539108   # O_3
 43 1 2  -1.323740  19.539108   9.188908   9.188908   # O_3
 44 1 2  -1.324270   9.188908  19.539108   9.188908   # O_3
 45 1 2  -1.352110   9.188908   9.188908  19.539108   # O_3
 46 1 2  -1.495450   1.161292   1.161292  19.539108   # O_3
 47 1 2  -1.532150   1.161292  11.511492   9.188908   # O_3
 48 1 2  -1.400610  11.511492   1.161292   9.188908   # O_3
 49 1 3   0.549026   3.179581   0.000000  17.520819   # C_3
 50 1 2  -0.734696   3.528590   0.000000  18.727859   # O_3
 51 1 2  -0.783549   1.972541   0.000000  17.171810   # O_3
 52 1 3  -0.198856   4.243582   0.000000  16.456818   # C_3
 53 1 3  -0.007971   3.816533   0.000000  15.162836   # C_3
 54 1 4   0.013372   2.700574   0.000000  14.930785   # H_
 55 1 2  -0.118908   4.504200  20.040057  12.915601   # O_3
 56 1 3   0.056940   4.812636   0.000000  14.167768   # C_3
 57 1 3  -0.170363   6.106618   0.000000  14.593782   # C_3
 58 1 3  -0.036040   6.532632   0.000000  15.887764   # C_3
 59 1 3   0.135553   5.537564   0.000000  16.883867   # C_3
 60 1 2  -0.218994   5.872703   0.720995  18.105398   # O_3
 61 1 4   0.022444   7.648591   0.000000  16.119815   # H_
 62 1 2  -0.784416   8.377452   0.000000  13.878790   # O_3
 63 1 3   0.537054   7.170619   0.000000  13.529781   # C_3
 64 1 2  -0.765365   6.821610   0.000000  12.322741   # O_3
 65 1 3   0.030131   4.713895  18.663481  13.125917   # C_3
 66 1 3  -0.070839   3.436680  17.924269  13.235422   # C_3
 67 1 4   0.046839   5.314000  18.368293  14.015620   # H_
 68 1 4   0.041018   5.298681  18.354838  12.303076   # H_
 69 1 4   0.069665   2.850238  18.233533  14.150172   # H_
 70 1 3  -0.137204   3.687155  16.443570  13.584223   # C_3
 71 1 4   0.057042   2.860381  17.976020  12.322327   # H_
 72 1 4   0.058325   4.491780  15.998718  12.964247   # H_
 73 1 4   0.061052   2.791656  15.794612  13.417999   # H_
 74 1 4   0.055082   3.947359  16.404239  14.655262   # H_
 75 1 3   0.039902   5.932528   2.114753  17.720991   # C_3
 76 1 3  -0.054283   4.568992   2.887499  17.641502   # C_3
 77 1 4   0.022421   6.500340   2.266073  16.783263   # H_
 78 1 4   0.037212   6.503445   2.617359  18.506779   # H_
 79 1 4   0.074119   3.742011   2.467281  18.245747   # H_
 80 1 3  -0.156918   4.119380   3.239613  16.236566   # C_3
 81 1 4   0.062284   4.807254   3.860625  18.151974   # H_
 82 1 4   0.074897   4.232197   2.355706  15.643292   # H_
 83 1 4   0.056732   4.708720   4.037613  15.780122   # H_
 84 1 4   0.063606   3.052274   3.551568  16.235117   # H_
 85 1 3   0.556606   3.179581  10.350200   7.170619   # C_3
 86 1 2  -0.649294   3.528590  10.350200   8.377659   # O_3
 87 1 2  -0.660483   1.972541  10.350200   6.821610   # O_3
 88 1 3  -0.177218   4.243582  10.350200   6.106618   # C_3
 89 1 3  -0.016921   3.816533  10.350200   4.812636   # C_3
 90 1 4   0.051688   2.700574  10.350200   4.580585   # H_
 91 1 2  -0.207255   4.452449   9.681370   2.547805   # O_3
 92 1 3   0.148573   4.812636  10.350200   3.817568   # C_3
 93 1 3  -0.181670   6.106618  10.350200   4.243582   # C_3
 94 1 3  -0.014765   6.532632  10.350200   5.537564   # C_3
 95 1 3   0.146917   5.537564  10.350200   6.533667   # C_3
 96 1 2  -0.205142   5.891541  11.065813   7.773000   # O_3
 97 1 4   0.045274   7.648591  10.350200   5.769615   # H_
 98 1 2  -0.745426   8.377452  10.350200   3.528590   # O_3
 99 1 3   0.549275   7.170619  10.350200   3.179581   # C_3
 100 1 2  -0.733693   6.821610  10.350200   1.972541   # O_3
 101 1 3   0.032782   4.569613   8.249316   2.583824   # C_3
 102 1 3  -0.070351   4.727971   7.393976   3.908443   # C_3
 103 1 4   0.029339   5.506927   8.073777   2.063830   # H_
 104 1 4   0.032146   3.762919   7.779831   1.982063   # H_
 105 1 4   0.035295   5.774791   6.993423   3.972200   # H_
 106 1 3  -0.137900   3.803491   6.163544   3.861867   # C_3
 107 1 4   0.055693   4.465490   7.912314   4.833543   # H_
 108 1 4   0.055263   3.885465   5.566545   4.808289   # H_
 109 1 4   0.064667   4.075288   5.539013   2.976511   # H_
 110 1 4   0.071922   2.742389   6.524766   3.718413   # H_
 111 1 3   0.043854   5.968339  12.496210   7.515694   # C_3
 112 1 3  -0.079945   4.667526  13.266265   7.236032   # C_3
 113 1 4   0.018852   6.633029  12.678581   6.643379   # H_
 114 1 4   0.022506   6.500133  12.999851   8.331911   # H_
 115 1 4   0.052266   4.157675  12.897798   6.308861   # H_
 116 1 3  -0.132948   4.862938  14.823556   7.053247   # C_3
 117 1 4   0.064101   3.992693  13.117429   8.057838   # H_
 118 1 4   0.056199   4.015878  15.344171   7.586283   # H_
 119 1 4   0.049951   4.811601  15.123712   5.998355   # H_
 120 1 4   0.056713   5.846621  15.163250   7.473879   # H_
 121 1 3   0.556195  13.529781   0.000000   7.170619   # C_3
 122 1 2  -0.680745  13.878790   0.000000   8.377659   # O_3
 123 1 2  -0.678443  12.322741   0.000000   6.821610   # O_3
 124 1 3  -0.202412  14.593782   0.000000   6.106618   # C_3
 125 1 3  -0.002525  14.166733   0.000000   4.812636   # C_3
 126 1 4   0.024509  13.050774   0.000000   4.580585   # H_
 127 1 2  -0.100995  14.799130  20.230087   2.516341   # O_3
 128 1 3   0.050740  15.162629   0.000000   3.817568   # C_3
 129 1 3  -0.158605  16.456611   0.000000   4.243582   # C_3
 130 1 3  -0.042352  16.882832   0.000000   5.537564   # C_3
 131 1 3   0.146571  15.887764   0.000000   6.533667   # C_3
 132 1 2  -0.229174  16.168668   0.495568   7.877123   # O_3
 133 1 4   0.032850  17.998791   0.000000   5.769615   # H_
 134 1 2  -0.643968  18.727652   0.000000   3.528590   # O_3
 135 1 3   0.529377  17.520612   0.000000   3.179581   # C_3
 136 1 2  -0.685587  17.171603   0.000000   1.972541   # O_3
 137 1 3   0.020742  14.837012  18.763464   2.595830   # C_3
 138 1 3  -0.053157  14.606202  17.973536   3.967025   # C_3
 139 1 4   0.062636  15.821109  18.442814   2.168574   # H_
 140 1 4   0.038745  14.043358  18.371812   1.911061   # H_
 141 1 4   0.077435  15.441049  18.190062   4.685329   # H_
 142 1 3  -0.153734  14.447637  16.559699   3.544529   # C_3
 143 1 4   0.072254  13.603682  18.296256   4.333836   # H_
 144 1 4   0.062958  14.423418  16.000788   4.468388   # H_
 145 1 4   0.065990  15.251020  16.226216   2.816496   # H_
 146 1 4   0.074061  13.466852  16.488283   3.063866   # H_
 147 1 3   0.058352  16.861511   1.695984   7.810468   # C_3
 148 1 3  -0.077449  16.237601   2.762468   6.882469   # C_3
 149 1 4   0.003648  17.841261   1.415700   7.487749   # H_
 150 1 4   0.014523  16.990474   2.112062   8.752957   # H_
 151 1 4   0.052022  16.280037   2.389240   5.860904   # H_
 152 1 3  -0.158874  16.992544   4.095574   6.836721   # C_3
 153 1 4   0.057583  15.196785   2.946909   7.142259   # H_
 154 1 4   0.074997  18.033153   3.938044   6.540705   # H_
 155 1 4   0.068428  16.968946   4.566508   7.817920   # H_
 156 1 4   0.060465  16.527406   4.784069   6.139946   # H_
 157 1 3   0.543850  13.529781  10.350200  17.520819   # C_3
 158 1 2  -0.690792  13.878790  10.350200  18.727859   # O_3
 159 1 2  -0.731233  12.322741  10.350200  17.171810   # O_3
 160 1 3  -0.171555  14.593782  10.350200  16.456818   # C_3
 161 1 3  -0.019496  14.166733  10.350200  15.162836   # C_3
 162 1 4   0.054025  13.050774  10.350200  14.930785   # H_
 163 1 2  -0.211208  14.813206   9.617199  12.966317   # O_3
 164 1 3   0.149673  15.162629  10.350200  14.167768   # C_3
 165 1 3  -0.174516  16.456611  10.350200  14.593782   # C_3
 166 1 3  -0.012313  16.882832  10.350200  15.887764   # C_3
 167 1 3   0.158117  15.887764  10.350200  16.883867   # C_3
 168 1 2  -0.189810  16.197649  11.056705  18.110987   # O_3
 169 1 4   0.053976  17.998791  10.350200  16.119815   # H_
 170 1 2  -0.625244  18.727652  10.350200  13.878790   # O_3
 171 1 3   0.551897  17.520612  10.350200  13.529781   # C_3
 172 1 2  -0.645694  17.171603  10.350200  12.322741   # O_3
 173 1 3   0.039017  15.045258   8.263807  13.309736   # C_3
 174 1 3  -0.077922  13.779428   7.415504  13.331265   # C_3
 175 1 4   0.034931  15.542067   8.046038  14.284725   # H_
 176 1 4   0.044342  15.717193   7.892856  12.537404   # H_
 177 1 4   0.065735  13.154897   7.827442  14.133198   # H_
 178 1 3  -0.129214  13.977945   5.909550  13.681101   # C_3
 179 1 4   0.061492  13.274960   7.524181  12.346754   # H_
 180 1 4   0.060426  14.409548   5.270529  12.873993   # H_
 181 1 4   0.060394  12.986603   5.490160  13.902803   # H_
 182 1 4   0.051391  14.658781   5.822609  14.581362   # H_
 183 1 3   0.030352  16.418315  12.441768  17.761771   # C_3
 184 1 3  -0.056906  15.176912  13.337682  17.621215   # C_3
 185 1 4   0.025579  17.002895  12.621448  16.836256   # H_
 186 1 4   0.045092  17.033531  12.782497  18.591650   # H_
 187 1 4   0.039490  14.320951  12.830522  18.080557   # H_
 188 1 3  -0.146538  14.786710  13.760591  16.191025   # C_3
 189 1 4   0.063569  15.319538  14.303148  18.152802   # H_
 190 1 4   0.051058  13.698490  13.910462  16.213588   # H_
 191 1 4   0.061452  14.999510  12.953689  15.436495   # H_
 192 1 4   0.055550  15.340445  14.669338  15.904945   # H_
 193 1 3   0.533690  17.520819   0.000000  17.520819   # C_3
 194 1 2  -0.717588  17.171810   0.000000  18.727859   # O_3
 195 1 2  -0.744654  18.727859   0.000000  17.171810   # O_3
 196 1 3  -0.175167  16.456818   0.000000  16.456818   # C_3
 197 1 3  -0.044681  16.883867   0.000000  15.162836   # C_3
 198 1 4   0.034724  17.999826   0.000000  14.930785   # H_
 199 1 2  -0.276370  16.250642   0.231223  12.795124   # O_3
 200 1 3   0.145224  15.887971   0.000000  14.167768   # C_3
 201 1 3  -0.210806  14.593989   0.000000  14.593782   # C_3
 202 1 3  -0.024813  14.167768   0.000000  15.887764   # C_3
 203 1 3   0.116543  15.162836   0.000000  16.883867   # C_3
 204 1 2  -0.206121  14.798716   0.383578  18.243884   # O_3
 205 1 4   0.027733  13.051809   0.000000  16.119815   # H_
 206 1 2  -0.793380  12.322948   0.000000  13.878790   # O_3
 207 1 3   0.546856  13.529988   0.000000  13.529781   # C_3
 208 1 2  -0.772215  13.878997   0.000000  12.322741   # O_3
 209 1 3   0.117678  16.759044  19.759774  12.292519   # C_3
 210 1 3   0.029690  17.214246  19.985822  10.824032   # C_3
 211 1 4   0.032412  15.943862  19.005658  12.309700   # H_
 212 1 4   0.025982  17.667584  19.446784  12.880617   # H_
 213 1 4   0.041735  17.810417  19.098603  10.476679   # H_
 214 1 3  -0.250477  18.197101   0.378610  10.668779   # C_3
 215 1 4   0.067973  16.309431  20.184546  10.171763   # H_
 216 1 4   0.082286  17.702568   1.325447  10.950719   # H_
 217 1 4   0.060015  18.542797   0.405728   9.630654   # H_
 218 1 4   0.049543  19.038365   0.194170  11.333055   # H_
 219 1 3  -0.112671  14.236700  20.076697  19.060307   # C_3
 220 1 3   0.646537  14.107323  20.545147  20.496087   # C_3
 221 1 4   0.111341  14.868890  19.160911  18.979990   # H_
 222 1 4   0.089830  13.249291  19.866381  18.683353   # H_
 223 1 4  -0.149384  13.773425  19.727895   0.403865   # H_
 224 1 3  -0.706948  13.044150   0.844576   0.047404   # C_3
 225 1 4  -0.229676  15.088522   0.224806   0.170985   # H_
 226 1 4   0.108101  12.089034   0.333690   0.057547   # H_
 227 1 4   0.243289  13.029660   1.602832  19.976921   # H_
 228 1 4   0.161837  13.138544   1.367261   1.036055   # H_
 229 1 3   0.539731  17.520819  10.350200   7.170619   # C_3
 230 1 2  -0.724389  17.171810  10.350200   8.377659   # O_3
 231 1 2  -0.707462  18.727859  10.350200   6.821610   # O_3
 232 1 3  -0.175115  16.456818  10.350200   6.106618   # C_3
 233 1 3  -0.022394  16.883867  10.350200   4.812636   # C_3
 234 1 4   0.046391  17.999826  10.350200   4.580585   # H_
 235 1 2  -0.217867  16.254575  10.636901   2.455688   # O_3
 236 1 3   0.153621  15.887971  10.350200   3.817568   # C_3
 237 1 3  -0.180939  14.593989  10.350200   4.243582   # C_3
 238 1 3  -0.015071  14.167768  10.350200   5.537564   # C_3
 239 1 3   0.144064  15.162836  10.350200   6.533667   # C_3
 240 1 2  -0.205028  14.793334  10.850736   7.851869   # O_3
 241 1 4   0.053554  13.051809  10.350200   5.769615   # H_
 242 1 2  -0.657243  12.322948  10.350200   3.528590   # O_3
 243 1 3   0.557989  13.529988  10.350200   3.179581   # C_3
 244 1 2  -0.655614  13.878997  10.350200   1.972541   # O_3
 245 1 3   0.066323  16.662373   9.456150   1.886427   # C_3
 246 1 3  -0.143367  17.242191   9.788391   0.511093   # C_3
 247 1 4   0.022183  15.789023   8.773865   1.833020   # H_
 248 1 4   0.012389  17.448367   8.986872   2.489223   # H_
 249 1 4   0.044192  17.761771   8.883163   0.149457   # H_
 250 1 3  -0.237241  18.329997  10.867503   0.558911   # C_3
 251 1 4   0.134909  16.406930  10.075920  20.539144   # H_
 252 1 4   0.074232  17.867343  11.844148   0.765087   # H_
 253 1 4   0.145499  18.963843  10.893585  20.336901   # H_
 254 1 4   0.083043  18.997999  10.636487   1.403487   # H_
 255 1 3   0.032318  14.434389   9.827308   8.730187   # C_3
 256 1 3  -0.045806  14.421348  10.359101  10.173419   # C_3
 257 1 4   0.034572  15.184778   9.038830   8.723149   # H_
 258 1 4   0.018819  13.441805   9.400259   8.407260   # H_
 259 1 4   0.049045  14.239391   9.502519  10.819685   # H_
 260 1 3  -0.148079  13.222588  11.248390  10.376904   # C_3
 261 1 4   0.006181  15.390954  10.835003  10.473367   # H_
 262 1 4   0.047651  12.273060  10.684304  10.415406   # H_
 263 1 4   0.070244  13.122605  11.947857   9.524047   # H_
 264 1 4   0.065186  13.336026  11.762174  11.319600   # H_
 265 1 3   0.548676   7.170619   0.000000   7.170619   # C_3
 266 1 2  -0.685111   6.821610   0.000000   8.377659   # O_3
 267 1 2  -0.689207   8.377659   0.000000   6.821610   # O_3
 268 1 3  -0.191703   6.106618   0.000000   6.106618   # C_3
 269 1 3  -0.036009   6.533667   0.000000   4.812636   # C_3
 270 1 4   0.020385   7.649626   0.000000   4.580585   # H_
 271 1 2  -0.279534   5.860283   0.409454   2.445338   # O_3
 272 1 3   0.136683   5.537564   0.000000   3.817568   # C_3
 273 1 3  -0.192053   4.243582   0.000000   4.243582   # C_3
 274 1 3  -0.034563   3.817568   0.000000   5.537564   # C_3
 275 1 3   0.131157   4.812636   0.000000   6.533667   # C_3
 276 1 2  -0.255763   4.454726   0.504055   7.835515   # O_3
 277 1 4   0.033819   2.701609   0.000000   5.769615   # H_
 278 1 2  -0.685634   1.972748   0.000000   3.528590   # O_3
 279 1 3   0.553190   3.179581   0.000000   3.179581   # C_3
 280 1 2  -0.690414   3.528590   0.000000   1.972541   # O_3
 281 1 3   0.165000   6.753091  20.311439   1.721031   # C_3
 282 1 3  -0.154936   6.730528  20.688187   0.225634   # C_3
 283 1 4   0.001209   6.440308  19.268967   1.797002   # H_
 284 1 4   0.017787   7.819369  20.425913   2.073973   # H_
 285 1 4   0.162631   5.719521  20.493603  20.517822   # H_
 286 1 3  -0.053536   7.742571  19.865760  20.117684   # C_3
 287 1 4  -0.011159   6.979347   1.047440   0.049060   # H_
 288 1 4   0.085823   7.394597  19.886874  19.067345   # H_
 289 1 4   0.083675   7.735532  18.815629  20.429432   # H_
 290 1 4   0.087314   8.768689  20.277284  20.175024   # H_
 291 1 3   0.065910   3.939286  20.145215   8.592115   # C_3
 292 1 3   0.169187   3.791071  20.585927  10.039694   # C_3
 293 1 4   0.045735   4.624262  19.257789   8.585905   # H_
 294 1 4   0.033809   2.944839  19.842368   8.176865   # H_
 295 1 4   0.006303   3.453448  19.706160  10.604401   # H_
 296 1 3  -0.284078   2.727071   0.959050  10.326602   # C_3
 297 1 4  -0.085653   4.777859   0.187753  10.429069   # H_
 298 1 4   0.026232   1.721445   0.514198  10.338401   # H_
 299 1 4   0.087050   2.803248   1.770919   9.552200   # H_
 300 1 4   0.078023   2.910269   1.412181  11.316288   # H_
 301 1 3   0.548091   7.170619  10.350200  17.520819   # C_3
 302 1 2  -0.610752   6.821610  10.350200  18.727859   # O_3
 303 1 2  -0.656403   8.377659  10.350200  17.171810   # O_3
 304 1 3  -0.171186   6.106618  10.350200  16.456818   # C_3
 305 1 3  -0.023177   6.533667  10.350200  15.162836   # C_3
 306 1 4   0.046675   7.649626  10.350200  14.930785   # H_
 307 1 2  -0.211162   5.887194  10.723428  12.821000   # O_3
 308 1 3   0.151400   5.537564  10.350200  14.167768   # C_3
 309 1 3  -0.187757   4.243582  10.350200  14.593782   # C_3
 310 1 3  -0.016699   3.817568  10.350200  15.887764   # C_3
 311 1 3   0.145202   4.812636  10.350200  16.883867   # C_3
 312 1 2  -0.183406   4.451207  10.707903  18.222562   # O_3
 313 1 4   0.045892   2.701609  10.350200  16.119815   # H_
 314 1 2  -0.752587   1.972748  10.350200  13.878790   # O_3
 315 1 3   0.548399   3.179581  10.350200  13.529781   # C_3
 316 1 2  -0.734133   3.528590  10.350200  12.322741   # O_3
 317 1 3   0.042281   6.374274   9.608712  12.159001   # C_3
 318 1 3  -0.063912   6.838791   9.886511  10.751374   # C_3
 319 1 4   0.031903   5.552882   8.884198  12.091518   # H_
 320 1 4   0.016103   7.247624   9.201742  12.729918   # H_
 321 1 4   0.041214   7.272672   8.958305  10.310662   # H_
 322 1 3  -0.140932   8.013746  10.869159  10.586599   # C_3
 323 1 4   0.042704   5.950951  10.225377  10.184390   # H_
 324 1 4   0.066622   7.701377  11.871472  10.950098   # H_
 325 1 4   0.057893   8.221992  10.918219   9.502933   # H_
 326 1 4   0.048629   8.902000  10.513319  11.121704   # H_
 327 1 3  -0.047165   4.044651   9.607263  18.947283   # C_3
 328 1 3   0.201660   3.797695  10.057496  20.325516   # C_3
 329 1 4   0.078152   4.805184   8.780489  18.885389   # H_
 330 1 4   0.040568   3.128037   9.175038  18.598688   # H_
 331 1 4  -0.070078   3.396729   9.290340   0.255857   # H_
 332 1 3  -0.121615   2.939871  11.242180  20.490705   # C_3
 333 1 4  -0.083209   4.789659  10.341092   0.039745   # H_
 334 1 4   0.072689   1.938799  10.932916  20.332140   # H_
 335 1 4   0.088452   3.181030  12.033971  19.727895   # H_
 336 1 4   0.015234   2.989966  11.623689   0.823048   # H_
 337 1 3   0.540520  17.520819   3.179581   0.000000   # C_3
 338 1 2  -0.723283  18.727859   3.528590   0.000000   # O_3
 339 1 2  -0.764419  17.171810   1.972541   0.000000   # O_3
 340 1 3  -0.192371  16.456818   4.243582   0.000000   # C_3
 341 1 3  -0.008081  15.162836   3.816533   0.000000   # C_3
 342 1 4   0.022716  14.930785   2.700574   0.000000   # H_
 343 1 2  -0.122744  12.922432   4.486398  19.980026   # O_3
 344 1 3   0.061589  14.167768   4.812636   0.000000   # C_3
 345 1 3  -0.169910  14.593782   6.106618   0.000000   # C_3
 346 1 3  -0.030257  15.887764   6.532632   0.000000   # C_3
 347 1 3   0.139061  16.883867   5.537564   0.000000   # C_3
 348 1 2  -0.198228  18.079729   5.892162   0.788478   # O_3
 349 1 4   0.033928  16.119815   7.648591   0.000000   # H_
 350 1 2  -0.693480  13.878790   8.377452   0.000000   # O_3
 351 1 3   0.542933  13.529781   7.170619   0.000000   # C_3
 352 1 2  -0.687771  12.322741   6.821610   0.000000   # O_3
 353 1 3   0.023286  13.163384   4.769579  18.596204   # C_3
 354 1 3  -0.062758  13.235215   3.484291  17.861340   # C_3
 355 1 4   0.060162  14.085380   5.372789  18.405968   # H_
 356 1 4   0.053751  12.287964   5.344015  18.278453   # H_
 357 1 4   0.063083  13.946273   2.765987  18.358150   # H_
 358 1 3  -0.150068  13.870096   3.767266  16.506499   # C_3
 359 1 4   0.056263  12.280719   3.017290  17.800274   # H_
 360 1 4   0.066227  13.019931   4.149809  15.952142   # H_
 361 1 4   0.065316  14.204407   2.861209  16.034944   # H_
 362 1 4   0.060235  14.699975   4.528212  16.457232   # H_
 363 1 3   0.034847  17.761150   5.954884   2.223430   # C_3
 364 1 3  -0.067780  17.763841   4.564438   3.009838   # C_3
 365 1 4   0.020544  16.829632   6.528699   2.412218   # H_
 366 1 4   0.043265  18.552941   6.522903   2.672008   # H_
 367 1 4   0.084732  18.396859   3.865179   2.456723   # H_
 368 1 3  -0.138608  16.422248   3.815498   3.121413   # C_3
 369 1 4   0.064921  18.175779   4.710376   4.025400   # H_
 370 1 4   0.068722  16.397408   2.828917   2.590034   # H_
 371 1 4   0.061978  15.649709   4.473563   2.690845   # H_
 372 1 4   0.052677  16.115675   3.642028   4.162022   # H_
 373 1 3   0.543782  17.520819  13.529781  10.350200   # C_3
 374 1 2  -0.700498  18.727859  13.878790  10.350200   # O_3
 375 1 2  -0.732104  17.171810  12.322741  10.350200   # O_3
 376 1 3  -0.173165  16.456818  14.593782  10.350200   # C_3
 377 1 3  -0.026870  15.162836  14.166733  10.350200   # C_3
 378 1 4   0.056833  14.930785  13.050774  10.350200   # H_
 379 1 2  -0.214585  12.936508  14.846534   9.742850   # O_3
 380 1 3   0.162899  14.167768  15.162629  10.350200   # C_3
 381 1 3  -0.180800  14.593782  16.456611  10.350200   # C_3
 382 1 3  -0.010951  15.887764  16.882832  10.350200   # C_3
 383 1 3   0.152433  16.883867  15.887764  10.350200   # C_3
 384 1 2  -0.189167  18.157563  16.265132  10.926706   # O_3
 385 1 4   0.051323  16.119815  17.998791  10.350200   # H_
 386 1 2  -0.627455  13.878790  18.727652  10.350200   # O_3
 387 1 3   0.552238  13.529781  17.520612  10.350200   # C_3
 388 1 2  -0.645052  12.322741  17.171603  10.350200   # O_3
 389 1 3   0.035852  13.078720  14.757522   8.317835   # C_3
 390 1 3  -0.072103  14.467303  14.683622   7.575932   # C_3
 391 1 4   0.043140  12.659330  15.706014   7.887680   # H_
 392 1 4   0.031699  12.451498  13.859746   8.007536   # H_
 393 1 4   0.055214  14.884002  15.724852   7.567445   # H_
 394 1 3  -0.143527  14.449500  14.151414   6.108895   # C_3
 395 1 4   0.056290  15.183950  13.996161   8.046245   # H_
 396 1 4   0.052330  15.295526  14.641186   5.571513   # H_
 397 1 4   0.066537  13.474097  14.391746   5.638789   # H_
 398 1 4   0.069411  14.638702  13.062573   6.024023   # H_
 399 1 3   0.030665  17.909365  16.704602  12.286308   # C_3
 400 1 3  -0.056524  17.439259  15.714295  13.359003   # C_3
 401 1 4   0.019514  17.165600  17.421457  12.313219   # H_
 402 1 4   0.044725  18.841297  17.162702  12.599712   # H_
 403 1 4   0.041860  16.388921  15.445603  13.133783   # H_
 404 1 3  -0.152631  17.321888  16.339447  14.785261   # C_3
 405 1 4   0.073953  18.021768  14.758971  13.336647   # H_
 406 1 4   0.063318  16.328062  16.829632  14.846741   # H_
 407 1 4   0.089971  18.107675  17.080935  14.993093   # H_
 408 1 4   0.075728  17.382747  15.550347  15.551797   # H_
 409 1 3   0.557178   7.170619   3.179581  10.350200   # C_3
 410 1 2  -0.646909   8.377659   3.528590  10.350200   # O_3
 411 1 2  -0.661939   6.821610   1.972541  10.350200   # O_3
 412 1 3  -0.177624   6.106618   4.243582  10.350200   # C_3
 413 1 3  -0.023082   4.812636   3.816533  10.350200   # C_3
 414 1 4   0.051592   4.580585   2.700574  10.350200   # H_
 415 1 2  -0.217333   2.551531   4.404838   9.858151   # O_3
 416 1 3   0.161109   3.817568   4.812636  10.350200   # C_3
 417 1 3  -0.188282   4.243582   6.106618  10.350200   # C_3
 418 1 3  -0.015511   5.537564   6.532632  10.350200   # C_3
 419 1 3   0.149969   6.533667   5.537564  10.350200   # C_3
 420 1 2  -0.207460   7.829719   5.855936  10.911181   # O_3
 421 1 4   0.044498   5.769615   7.648591  10.350200   # H_
 422 1 2  -0.663550   3.528590   8.377452  10.350200   # O_3
 423 1 3   0.555572   3.179581   7.170619  10.350200   # C_3
 424 1 2  -0.645096   1.972541   6.821610  10.350200   # O_3
 425 1 3   0.033809   2.570783   4.533181   8.444935   # C_3
 426 1 3  -0.063842   3.922933   4.574581   7.680055   # C_3
 427 1 4   0.043843   2.032779   5.435925   8.201498   # H_
 428 1 4   0.028552   2.017047   3.673079   7.999256   # H_
 429 1 4   0.040437   3.668939   5.189590   6.797804   # H_
 430 1 3  -0.148768   4.517448   3.369611   7.049728   # C_3
 431 1 4   0.052859   4.740392   5.097059   8.132566   # H_
 432 1 4   0.076014   3.764782   2.746943   6.549814   # H_
 433 1 4   0.083654   5.059799   2.808630   7.829926   # H_
 434 1 4   0.056121   5.289780   3.766231   6.327284   # H_
 435 1 3   0.039651   7.595805   6.319004  12.230003   # C_3
 436 1 3  -0.070096   6.955334   5.301372  13.238113   # C_3
 437 1 4   0.016878   6.974379   7.200220  12.254016   # H_
 438 1 4   0.024653   8.546367   6.609224  12.620620   # H_
 439 1 4   0.046636   5.957989   4.926488  12.891174   # H_
 440 1 3  -0.145365   6.814365   5.822816  14.714258   # C_3
 441 1 4   0.057031   7.642588   4.426988  13.303112   # H_
 442 1 4   0.054681   5.841653   6.294785  14.907186   # H_
 443 1 4   0.061836   7.644244   6.519384  14.939893   # H_
 444 1 4   0.057259   6.901099   4.951743  15.399856   # H_
 445 1 3   0.557600   7.170619  13.529781   0.000000   # C_3
 446 1 2  -0.682639   8.377659  13.878790   0.000000   # O_3
 447 1 2  -0.688399   6.821610  12.322741   0.000000   # O_3
 448 1 3  -0.200834   6.106618  14.593782   0.000000   # C_3
 449 1 3   0.000091   4.812636  14.166733   0.000000   # C_3
 450 1 4   0.020381   4.580585  13.050774   0.000000   # H_
 451 1 2  -0.119221   2.604110  14.800786  19.927033   # O_3
 452 1 3   0.056787   3.817568  15.162629   0.000000   # C_3
 453 1 3  -0.161296   4.243582  16.456611   0.000000   # C_3
 454 1 3  -0.038397   5.537564  16.882832   0.000000   # C_3
 455 1 3   0.143271   6.533667  15.887764   0.000000   # C_3
 456 1 2  -0.228783   7.796806  16.203238   0.655582   # O_3
 457 1 4   0.031887   5.769615  17.998791   0.000000   # H_
 458 1 2  -0.735807   3.528590  18.727652   0.000000   # O_3
 459 1 3   0.527950   3.179581  17.520612   0.000000   # C_3
 460 1 2  -0.758655   1.972541  17.171603   0.000000   # O_3
 461 1 3   0.022088   2.866177  15.009032  18.545695   # C_3
 462 1 3  -0.057228   3.177925  13.727470  17.697186   # C_3
 463 1 4   0.052688   3.736836  15.654056  18.372847   # H_
 464 1 4   0.046088   2.008560  15.634391  18.185922   # H_
 465 1 4   0.069040   4.151051  13.395022  18.108917   # H_
 466 1 3  -0.156615   3.415359  14.145618  16.191439   # C_3
 467 1 4   0.054381   2.450306  12.871923  17.716230   # H_
 468 1 4   0.069479   2.661450  14.648638  15.633563   # H_
 469 1 4   0.059346   3.714687  13.255708  15.584296   # H_
 470 1 4   0.061552   4.233025  14.841980  16.217314   # H_
 471 1 3   0.039458   7.562270  16.443777   2.053273   # C_3
 472 1 3  -0.060100   7.296270  15.153521   2.879426   # C_3
 473 1 4   0.023778   6.658905  17.089836   2.216392   # H_
 474 1 4   0.020144   8.405811  17.006000   2.414909   # H_
 475 1 4   0.048597   6.273463  14.824591   2.650272   # H_
 476 1 3  -0.165476   7.183660  15.440221   4.373167   # C_3
 477 1 4   0.058226   8.000084  14.336476   2.662485   # H_
 478 1 4   0.073830   8.131324  15.668340   4.830024   # H_
 479 1 4   0.061103   6.695751  14.595231   4.861696   # H_
 480 1 4   0.064392   6.540912  16.325784   4.383103   # H_
 481 1 3   0.535407  17.520819  17.520819   0.000000   # C_3
 482 1 2  -0.633574  18.727859  17.171810   0.000000   # O_3
 483 1 2  -0.652609  17.171810  18.727859   0.000000   # O_3
 484 1 3  -0.171708  16.456818  16.456818   0.000000   # C_3
 485 1 3  -0.042031  15.162836  16.883867   0.000000   # C_3
 486 1 4   0.029960  14.930785  17.999826   0.000000   # H_
 487 1 2  -0.265756  12.792433  16.238636   0.251510   # O_3
 488 1 3   0.145235  14.167768  15.887971   0.000000   # C_3
 489 1 3  -0.202263  14.593782  14.593989   0.000000   # C_3