 (written by mofun)

744 atoms
0 bonds
0 angles
0 dihedrals
0 impropers

4 atom types
   0.000000  20.700400 xlo xhi
   0.000000  20.700400 ylo yhi
   0.000000  20.700400 zlo zhi

Masses

 1 91.2240   # Zr3+4
 2 15.9994   # O_3
 3 12.0107   # C_3
 4 1.0079   # H_

Pair Coeffs

 1   0.069000   2.783168 # Zr3+4
 2   0.060000   3.118146 # O_3
 3   0.105000   3.430851 # C_3
 4   0.044000   2.571134 # H_

Atoms

 1 1 1   3.175050   2.481771   0.000000   0.000000   # Zr3+4
 2 1 1   3.191250   2.481771  10.350200  10.350200   # Zr3+4
 3 1 1   3.180770  12.831971   0.000000  10.350200   # Zr3+4
 4 1 1   3.183690  12.831971  10.350200   0.000000   # Zr3+4
 5 1 1   3.172090  18.218629   0.000000   0.000000   # Zr3+4
 6 1 1   3.191030  18.218629  10.350200  10.350200   # Zr3+4
 7 1 1   3.181480   7.868429   0.000000  10.350200   # Zr3+4
 8 1 1   3.181500   7.868429  10.350200   0.000000   # Zr3+4
 9 1 1   3.173960   0.000000   2.481771   0.000000   # Zr3+4
 10 1 1   3.147280   0.000000  12.831971  10.350200   # Zr3+4
 11 1 1   3.191190  10.350200   2.481771  10.350200   # Zr3+4
 12 1 1   3.183950  10.350200  12.831971   0.000000   # Zr3+4
 13 1 1   3.171440   0.000000  18.218629   0.000000   # Zr3+4
 14 1 1   3.213640   0.000000   7.868429  10.350200   # Zr3+4
 15 1 1   3.190980  10.350200  18.218629  10.350200   # Zr3+4
 16 1 1   3.181670  10.350200   7.868429   0.000000   # Zr3+4
 17 1 1   3.204270   0.000000   0.000000   2.481771   # Zr3+4
 18 1 1   3.179610   0.000000  10.350200  12.831971   # Zr3+4
 19 1 1   3.147820  10.350200   0.000000  12.831971   # Zr3+4
 20 1 1   3.191810  10.350200  10.350200   2.481771   # Zr3+4
 21 1 1   3.138370   0.000000   0.000000  18.218629   # Zr3+4
 22 1 1   3.180840   0.000000  10.350200   7.868429   # Zr3+4
 23 1 1   3.214220  10.350200   0.000000   7.868429   # Zr3+4
 24 1 1   3.191550  10.350200  10.350200  18.218629   # Zr3+4
 25 1 2  -1.307970   1.161292   9.188908   9.188908   # O_3
 26 1 2  -1.231880  11.511492  19.539108   9.188908   # O_3
 27 1 2  -1.344670  11.511492   9.188908  19.539108   # O_3
 28 1 2  -1.307100   9.188908   1.161292   9.188908   # O_3
 29 1 2  -1.344540   9.188908  11.511492  19.539108   # O_3
 30 1 2  -1.196010  19.539108  19.539108   1.161292   # O_3
 31 1 2  -1.229970  19.539108   9.188908  11.511492   # O_3
 32 1 2  -1.343810   1.161292   1.161292   1.161292   # O_3
 33 1 2  -1.407580  11.511492  11.511492   1.161292   # O_3
 34 1 2  -1.354510  19.539108   1.161292   1.161292   # O_3
 35 1 2  -1.453380  19.539108  11.511492  11.511492   # O_3
 36 1 2  -1.529490   9.188908   1.161292  11.511492   # O_3
 37 1 2  -1.415650   9.188908  11.511492   1.161292   # O_3
 38 1 2  -1.358520   1.161292  19.539108   1.161292   # O_3
 39 1 2  -1.401510   1.161292   9.188908  11.511492   # O_3
 40 1 2  -1.455840  11.511492  19.539108  11.511492   # O_3
 41 1 2  -1.414990  11.511492   9.188908   1.161292   # O_3
 42 1 2  -1.346010  19.539108  19.539108  19.539108   # O_3
 43 1 2  -1.316740  19.539108   9.188908   9.188908   # O_3
 44 1 2  -1.319050   9.188908  19.539108   9.188908   # O_3
 45 1 2  -1.350090   9.188908   9.188908  19.539108   # O_3
 46 1 2  -1.492640   1.161292   1.161292  19.539108   # O_3
 47 1 2  -1.530480   1.161292  11.511492   9.188908   # O_3
 48 1 2  -1.400050  11.511492   1.161292   9.188908   # O_3
 49 1 3   0.523998   3.179581   0.000000  17.520819   # C_3
 50 1 2  -0.726799   3.528590   0.000000  18.727859   # O_3
 51 1 2  -0.781175   1.972541   0.000000  17.171810   # O_3
 52 1 3  -0.112580   4.243582   0.000000  16.456818   # C_3
 53 1 3  -0.062409   3.816533   0.000000  15.162836   # C_3
 54 1 4   0.035698   2.700574   0.000000  14.930785   # H_
 55 1 2  -0.267833   4.484121   0.511714  12.897798   # O_3
 56 1 3   0.176995   4.812636   0.000000  14.167768   # C_3
 57 1 3  -0.230120   6.106618   0.000000  14.593782   # C_3
 58 1 3   0.048378   6.532632   0.000000  15.887764   # C_3
 59 1 3  -0.025413   5.537564   0.000000  16.883867   # C_3
 60 1 4   0.028291   5.769615   0.000000  17.999826   # H_
 61 1 4  -0.004674   7.648591   0.000000  16.119815   # H_
 62 1 2  -0.798141   8.377452   0.000000  13.878790   # O_3
 63 1 3   0.570194   7.170619   0.000000  13.529781   # C_3
 64 1 2  -0.769798   6.821610   0.000000  12.322741   # O_3
 65 1 3   0.127329   3.736422  20.252650  12.234350   # C_3
 66 1 3   0.014341   3.936181  20.423015  10.752616   # C_3
 67 1 4   0.039894   2.687326  20.522791  12.445287   # H_
 68 1 4   0.024903   3.926245  19.191548  12.528503   # H_
 69 1 4  -0.027763   3.840545   0.755358  10.569417   # H_
 70 1 3  -0.046731   2.745494  19.676144  10.081302   # C_3
 71 1 4   0.029396   4.952157  20.075662  10.466743   # H_
 72 1 4   0.032762   1.818944  20.285357  10.142575   # H_
 73 1 4   0.037126   2.556085  18.766776  10.620961   # H_
 74 1 3  -0.166143   3.024121  19.335623   8.654423   # C_3
 75 1 4   0.105863   2.846305  20.320755   8.197151   # H_
 76 1 4   0.066579   2.409320  18.578195   8.162375   # H_
 77 1 4   0.091814   4.095781  18.996757   8.586940   # H_
 78 1 3   0.536944   3.179581  10.350200   7.170619   # C_3
 79 1 2  -0.653354   3.528590  10.350200   8.377659   # O_3
 80 1 2  -0.660776   1.972541  10.350200   6.821610   # O_3
 81 1 3  -0.106180   4.243582  10.350200   6.106618   # C_3
 82 1 3  -0.042089   3.816533  10.350200   4.812636   # C_3
 83 1 4   0.056656   2.700574  10.350200   4.580585   # H_
 84 1 2  -0.209919   4.455347  11.015511   2.604731   # O_3
 85 1 3   0.184649   4.812636  10.350200   3.817568   # C_3
 86 1 3  -0.211582   6.106618  10.350200   4.243582   # C_3
 87 1 3   0.052589   6.532632  10.350200   5.537564   # C_3
 88 1 3  -0.012474   5.537564  10.350200   6.533667   # C_3
 89 1 4   0.041625   5.769615  10.350200   7.649626   # H_
 90 1 4   0.023679   7.648591  10.350200   5.769615   # H_
 91 1 2  -0.747417   8.377452  10.350200   3.528590   # O_3
 92 1 3   0.565424   7.170619  10.350200   3.179581   # C_3
 93 1 2  -0.741668   6.821610  10.350200   1.972541   # O_3
 94 1 3   0.070964   4.178997  10.199087   1.532244   # C_3
 95 1 3  -0.107537   2.682772  10.145887   1.390239   # C_3
 96 1 4   0.015699   4.620950   9.182490   1.664933   # H_
 97 1 4  -0.015747   4.689676  10.721565   0.721823   # H_
 98 1 4   0.048795   2.310372   9.767898   2.314926   # H_
 99 1 3  -0.117966   2.359432   9.240659   0.263723   # C_3
 100 1 4   0.042132   2.308923  11.162898   1.244922   # H_
 101 1 4  -0.012573   1.298743   9.295515   0.164361   # H_
 102 1 4   0.048354   2.549254   8.272087   0.663034   # H_
 103 1 3  -0.065917   3.169231   9.567518  19.677386   # C_3
 104 1 4   0.052291   3.007561  10.614958  19.390065   # H_
 105 1 4   0.053770   2.836783   8.894134  18.882491   # H_
 106 1 4   0.074139   4.258279   9.442073  19.745284   # H_
 107 1 3   0.528153  13.529781   0.000000   7.170619   # C_3
 108 1 2  -0.687279  13.878790   0.000000   8.377659   # O_3
 109 1 2  -0.673051  12.322741   0.000000   6.821610   # O_3
 110 1 3  -0.114731  14.593782   0.000000   6.106618   # C_3
 111 1 3  -0.054946  14.166733   0.000000   4.812636   # C_3
 112 1 4   0.041601  13.050774   0.000000   4.580585   # H_
 113 1 2  -0.258409  14.796232   0.527239   2.541181   # O_3
 114 1 3   0.168808  15.162629   0.000000   3.817568   # C_3
 115 1 3  -0.216360  16.456611   0.000000   4.243582   # C_3
 116 1 3   0.050898  16.882832   0.000000   5.537564   # C_3
 117 1 3  -0.020926  15.887764   0.000000   6.533667   # C_3
 118 1 4   0.022826  16.119815   0.000000   7.649626   # H_
 119 1 4   0.001765  17.998791   0.000000   5.769615   # H_
 120 1 2  -0.658153  18.727652   0.000000   3.528590   # O_3
 121 1 3   0.569105  17.520612   0.000000   3.179581   # C_3
 122 1 2  -0.693523  17.171603   0.000000   1.972541   # O_3
 123 1 3   0.093153  14.292798  20.115821   1.859310   # C_3
 124 1 3   0.099519  12.917257  20.491947   1.381959   # C_3
 125 1 4   0.036125  14.044393  19.179749   2.442233   # H_
 126 1 4   0.029236  15.042567  19.853340   1.111611   # H_
 127 1 4   0.033281  12.221930  20.174403   2.179131   # H_
 128 1 3  -0.341325  12.588741  19.761637   0.083837   # C_3
 129 1 4  -0.056177  12.867369   0.868589   1.279906   # H_
 130 1 4   0.177275  11.529295  19.827671  20.507472   # H_
 131 1 4   0.082627  12.770284  18.689149   0.275936   # H_
 132 1 3   0.169463  13.426900  20.250373  19.622737   # C_3
 133 1 4  -0.055280  13.171665   0.558497  19.304158   # H_
 134 1 4   0.022572  13.299179  19.621288  18.747731   # H_
 135 1 4   0.057948  14.483035  20.174403  19.954565   # H_
 136 1 3   0.520031  13.529781  10.350200  17.520819   # C_3
 137 1 2  -0.698015  13.878790  10.350200  18.727859   # O_3
 138 1 2  -0.724464  12.322741  10.350200  17.171810   # O_3
 139 1 3  -0.097204  14.593782  10.350200  16.456818   # C_3
 140 1 3  -0.048202  14.166733  10.350200  15.162836   # C_3
 141 1 4   0.062673  13.050774  10.350200  14.930785   # H_
 142 1 2  -0.216900  14.846120  10.814303  12.853085   # O_3
 143 1 3   0.189043  15.162629  10.350200  14.167768   # C_3
 144 1 3  -0.201496  16.456611  10.350200  14.593782   # C_3
 145 1 3   0.061007  16.882832  10.350200  15.887764   # C_3
 146 1 3  -0.011494  15.887764  10.350200  16.883867   # C_3
 147 1 4   0.049643  16.119815  10.350200  17.999826   # H_
 148 1 4   0.025801  17.998791  10.350200  16.119815   # H_
 149 1 2  -0.628736  18.727652  10.350200  13.878790   # O_3
 150 1 3   0.570202  17.520612  10.350200  13.529781   # C_3
 151 1 2  -0.645606  17.171603  10.350200  12.322741   # O_3
 152 1 3   0.089443  14.419278   9.752579  12.137887   # C_3
 153 1 3  -0.129891  13.111840  10.252494  11.605265   # C_3
 154 1 4   0.016384  14.135268   8.772002  12.654155   # H_
 155 1 4   0.006092  15.177947   9.566276  11.347752   # H_
 156 1 4   0.054615  12.423138  10.170521  12.480892   # H_
 157 1 3  -0.010934  12.595572   9.371278  10.485374   # C_3
 158 1 4   0.070332  13.240183  11.310492  11.384806   # H_
 159 1 4   0.016747  11.556205   9.613680  10.345232   # H_
 160 1 4   0.036071  12.674648   8.323217  10.845975   # H_
 161 1 3  -0.157652  13.215342   9.615336   9.203398   # C_3
 162 1 4   0.053587  13.196091  10.690308   8.901379   # H_
 163 1 4   0.053382  12.687275   9.001569   8.422579   # H_
 164 1 4   0.058911  14.281827   9.269639   9.241694   # H_
 165 1 3   0.520960  17.520819   0.000000  17.520819   # C_3
 166 1 2  -0.731866  17.171810   0.000000  18.727859   # O_3
 167 1 2  -0.745150  18.727859   0.000000  17.171810   # O_3
 168 1 3  -0.114599  16.456818   0.000000  16.456818   # C_3
 169 1 3  -0.059087  16.883867   0.000000  15.162836   # C_3
 170 1 4   0.034555  17.999826   0.000000  14.930785   # H_
 171 1 2  -0.249146  16.255196   0.438848  12.857639   # O_3
 172 1 3   0.166486  15.887971   0.000000  14.167768   # C_3
 173 1 3  -0.223439  14.593989   0.000000  14.593782   # C_3
 174 1 3   0.048271  14.167768   0.000000  15.887764   # C_3
 175 1 3  -0.016198  15.162836   0.000000  16.883867   # C_3
 176 1 4   0.021705  14.930785   0.000000  17.999826   # H_
 177 1 4   0.012560  13.051809   0.000000  16.119815   # H_
 178 1 2  -0.788262  12.322948   0.000000  13.878790   # O_3
 179 1 3   0.563744  13.529988   0.000000  13.529781   # C_3
 180 1 2  -0.768711  13.878997   0.000000  12.322741   # O_3
 181 1 3   0.060274  16.362838  20.069038  11.964417   # C_3
 182 1 3   0.241943  16.069928  20.578475  10.554306   # C_3
 183 1 4   0.058306  15.694008  19.224254  12.204956   # H_
 184 1 4   0.029030  17.361218  19.690841  11.829244   # H_
 185 1 4  -0.011807  15.741412  19.866795   9.834139   # H_
 186 1 3  -0.379973  17.158976   0.653305   9.911559   # C_3
 187 1 4  -0.149410  15.282484   0.527239  10.688859   # H_
 188 1 4   0.102114  17.674416   1.138936  10.761931   # H_
 189 1 4   0.112128  16.766703   1.360223   9.145851   # H_
 190 1 3   0.202046  18.093806  20.515131   9.125357   # C_3
 191 1 4  -0.006388  17.759080  19.472038   8.945471   # H_
 192 1 4   0.012770  18.985372  20.544940   9.750302   # H_
 193 1 4  -0.084729  18.337242   0.241781   8.143330   # H_
 194 1 3   0.520287  17.520819  10.350200   7.170619   # C_3
 195 1 2  -0.732139  17.171810  10.350200   8.377659   # O_3
 196 1 2  -0.700851  18.727859  10.350200   6.821610   # O_3
 197 1 3  -0.105536  16.456818  10.350200   6.106618   # C_3
 198 1 3  -0.044742  16.883867  10.350200   4.812636   # C_3
 199 1 4   0.057787  17.999826  10.350200   4.580585   # H_
 200 1 2  -0.216768  16.289973  10.831484   2.479701   # O_3
 201 1 3   0.176302  15.887971  10.350200   3.817568   # C_3
 202 1 3  -0.200312  14.593989  10.350200   4.243582   # C_3
 203 1 3   0.054537  14.167768  10.350200   5.537564   # C_3
 204 1 3  -0.009648  15.162836  10.350200   6.533667   # C_3
 205 1 4   0.039308  14.930785  10.350200   7.649626   # H_
 206 1 4   0.034329  13.051809  10.350200   5.769615   # H_
 207 1 2  -0.652225  12.322948  10.350200   3.528590   # O_3
 208 1 3   0.572099  13.529988  10.350200   3.179581   # C_3
 209 1 2  -0.651275  13.878997  10.350200   1.972541   # O_3
 210 1 3   0.144174  16.423490   9.768933   1.544664   # C_3
 211 1 3  -0.399027  16.216279  10.319770   0.097706   # C_3
 212 1 4   0.011666  15.716572   8.939675   1.739248   # H_
 213 1 4  -0.016994  17.376330   9.349750   1.475318   # H_
 214 1 4   0.166485  15.938687   9.535225  20.035917   # H_
 215 1 3   0.289251  17.446297  11.088997  20.295707   # C_3
 216 1 4   0.069288  15.431734  10.985702   0.131448   # H_
 217 1 4  -0.075194  17.932550  11.483133   0.528688   # H_
 218 1 4  -0.010716  17.240949  11.926949  19.624186   # H_
 219 1 3  -0.306900  18.322752  10.357652  19.379300   # C_3
 220 1 4   0.111460  18.010797   9.300483  19.336865   # H_
 221 1 4   0.132148  19.310575  10.512698  19.847958   # H_
 222 1 4   0.095537  18.396652  10.732122  18.330825   # H_
 223 1 3   0.530327   7.170619   0.000000   7.170619   # C_3
 224 1 2  -0.696590   6.821610   0.000000   8.377659   # O_3
 225 1 2  -0.682728   8.377659   0.000000   6.821610   # O_3
 226 1 3  -0.124579   6.106618   0.000000   6.106618   # C_3
 227 1 3  -0.052828   6.533667   0.000000   4.812636   # C_3
 228 1 4   0.031801   7.649626   0.000000   4.580585   # H_
 229 1 2  -0.264122   5.863181   0.463896   2.454032   # O_3
 230 1 3   0.155826   5.537564   0.000000   3.817568   # C_3
 231 1 3  -0.208927   4.243582   0.000000   4.243582   # C_3
 232 1 3   0.036917   3.817568   0.000000   5.537564   # C_3
 233 1 3  -0.019322   4.812636   0.000000   6.533667   # C_3
 234 1 4   0.006244   4.580585   0.000000   7.649626   # H_
 235 1 4   0.011060   2.701609   0.000000   5.769615   # H_
 236 1 2  -0.679384   1.972748   0.000000   3.528590   # O_3
 237 1 3   0.564533   3.179581   0.000000   3.179581   # C_3
 238 1 2  -0.681094   3.528590   0.000000   1.972541   # O_3
 239 1 3   0.184244   6.051141  20.094499   1.558947   # C_3
 240 1 3  -0.149970   5.773135  20.518443   0.101432   # C_3
 241 1 4   0.032810   5.390591  19.226325   1.811492   # H_
 242 1 4   0.010070   7.103135  19.740108   1.622704   # H_
 243 1 4   0.154672   5.605668  19.722927  20.089324   # H_
 244 1 3   0.178138   6.773792   0.740039  20.235883   # C_3
 245 1 4  -0.104737   4.849483   0.343420   0.153804   # H_
 246 1 4  -0.060369   7.143915   1.428328   0.342799   # H_
 247 1 4   0.016497   6.238480   1.291498  19.481353   # H_
 248 1 3  -0.399284   7.846694   0.091496  19.441402   # C_3
 249 1 4   0.172452   7.670533  19.726860  19.152631   # H_
 250 1 4   0.101586   8.747989   0.199759  20.046267   # H_
 251 1 4   0.098855   7.996358   0.583751  18.497877   # H_
 252 1 3   0.528858   7.170619  10.350200  17.520819   # C_3
 253 1 2  -0.620351   6.821610  10.350200  18.727859   # O_3
 254 1 2  -0.652700   8.377659  10.350200  17.171810   # O_3
 255 1 3  -0.099059   6.106618  10.350200  16.456818   # C_3
 256 1 3  -0.049618   6.533667  10.350200  15.162836   # C_3
 257 1 4   0.055387   7.649626  10.350200  14.930785   # H_
 258 1 2  -0.215814   5.918658  10.719495  12.840665   # O_3
 259 1 3   0.187677   5.537564  10.350200  14.167768   # C_3
 260 1 3  -0.210915   4.243582  10.350200  14.593782   # C_3
 261 1 3   0.057386   3.817568  10.350200  15.887764   # C_3
 262 1 3  -0.009511   4.812636  10.350200  16.883867   # C_3
 263 1 4   0.045894   4.580585  10.350200  17.999826   # H_
 264 1 4   0.031647   2.701609  10.350200  16.119815   # H_
 265 1 2  -0.744244   1.972748  10.350200  13.878790   # O_3
 266 1 3   0.564101   3.179581  10.350200  13.529781   # C_3
 267 1 2  -0.729597   3.528590  10.350200  12.322741   # O_3
 268 1 3   0.069905   6.045552   9.651769  11.971869   # C_3
 269 1 3  -0.114127   5.746224  10.139056  10.507109   # C_3
 270 1 4   0.037573   5.262249   8.887096  12.216755   # H_
 271 1 4   0.009828   7.001289   9.107762  12.035627   # H_
 272 1 4   0.048743   5.468218   9.453045   9.722771   # H_
 273 1 3   0.003821   6.749986  11.012199   9.810748   # C_3
 274 1 4  -0.018180   4.928972  10.782424  10.629862   # H_
 275 1 4   0.029101   7.215745  11.672749  10.529672   # H_
 276 1 4   0.031948   6.126904  11.608577   9.082508   # H_
 277 1 3  -0.193564   7.816264  10.369865   9.061600   # C_3
 278 1 4   0.064315   7.544261   9.353269   8.753164   # H_
 279 1 4   0.064513   8.621303  10.352684   9.738917   # H_
 280 1 4   0.061495   8.134843  10.969763   8.188664   # H_
 281 1 3   0.523418  17.520819   3.179581   0.000000   # C_3
 282 1 2  -0.723750  18.727859   3.528590   0.000000   # O_3
 283 1 2  -0.764051  17.171810   1.972541   0.000000   # O_3
 284 1 3  -0.114884  16.456818   4.243582   0.000000   # C_3
 285 1 3  -0.049713  15.162836   3.816533   0.000000   # C_3
 286 1 4   0.030086  14.930785   2.700574   0.000000   # H_
 287 1 2  -0.339514  12.972734   4.482465   0.774816   # O_3
 288 1 3   0.170841  14.167768   4.812636   0.000000   # C_3
 289 1 3  -0.217328  14.593782   6.106618   0.000000   # C_3
 290 1 3   0.047220  15.887764   6.532632   0.000000   # C_3
 291 1 3  -0.017046  16.883867   5.537564   0.000000   # C_3
 292 1 4   0.025950  17.999826   5.769615   0.000000   # H_
 293 1 4   0.002746  16.119815   7.648591   0.000000   # H_
 294 1 2  -0.700687  13.878790   8.377452   0.000000   # O_3
 295 1 3   0.573652  13.529781   7.170619   0.000000   # C_3
 296 1 2  -0.688778  12.322741   6.821610   0.000000   # O_3
 297 1 3   0.545541  11.980356   4.197420  20.620289   # C_3
 298 1 3  -0.577241  11.803161   2.760605   0.001242   # C_3
 299 1 4  -0.050534  12.129813   4.525314  19.541385   # H_
 300 1 4  -0.157237  11.115701   4.718242   0.328101   # H_
 301 1 4   0.221633  12.792226   2.297951  20.449097   # H_
 302 1 3   0.176775  10.690101   2.204593  19.811939   # C_3
 303 1 4   0.158640  11.533228   2.549254   1.032122   # H_
 304 1 4  -0.029628  10.657808   1.166261  20.072350   # H_
 305 1 4  -0.000595  11.073058   2.311614  18.764499   # H_
 306 1 3  -0.121492   9.310419   2.881496  20.070280   # C_3
 307 1 4   0.004880   9.050836   2.815668   0.425393   # H_
 308 1 4   0.072257   8.468327   2.492742  19.516130   # H_
 309 1 4   0.083279   9.404192   3.962678  19.758118   # H_
 310 1 3   0.523177  17.520819  13.529781  10.350200   # C_3
 311 1 2  -0.706112  18.727859  13.878790  10.350200   # O_3
 312 1 2  -0.724841  17.171810  12.322741  10.350200   # O_3
 313 1 3  -0.097550  16.456818  14.593782  10.350200   # C_3
 314 1 3  -0.049814  15.162836  14.166733  10.350200   # C_3
 315 1 4   0.062621  14.930785  13.050774  10.350200   # H_
 316 1 2  -0.224047  12.876063  14.829974  10.805402   # O_3
 317 1 3   0.195347  14.167768  15.162629  10.350200   # C_3
 318 1 3  -0.204896  14.593782  16.456611  10.350200   # C_3
 319 1 3   0.061057  15.887764  16.882832  10.350200   # C_3
 320 1 3  -0.010569  16.883867  15.887764  10.350200   # C_3
 321 1 4   0.047459  17.999826  16.119815  10.350200   # H_
 322 1 4   0.026468  16.119815  17.998791  10.350200   # H_
 323 1 2  -0.629160  13.878790  18.727652  10.350200   # O_3
 324 1 3   0.570170  13.529781  17.520612  10.350200   # C_3
 325 1 2  -0.646351  12.322741  17.171603  10.350200   # O_3
 326 1 3   0.103720  12.158173  14.444946   9.749474   # C_3
 327 1 3  -0.136679  11.711044  13.121156  10.205504   # C_3
 328 1 4   0.014167  12.697418  14.237528   8.764963   # H_
 329 1 4   0.000801  11.352720  15.152900   9.642453   # H_
 330 1 4   0.054851  12.513392  12.386498   9.997465   # H_
 331 1 3  -0.004809  10.620754  12.625381   9.385561   # C_3
 332 1 4   0.072910  11.431589  13.199403  11.250667   # H_
 333 1 4   0.014692  10.454737  11.624724   9.709523   # H_
 334 1 4   0.032696  10.971419  12.587913   8.322803   # H_
 335 1 3  -0.161759   9.374176  13.360038   9.647214   # C_3
 336 1 4   0.056827   9.093272  13.196298  10.681613   # H_
 337 1 4   0.056411   8.573278  13.043322   8.929532   # H_
 338 1 4   0.054820   9.469812  14.486761   9.514318   # H_
 339 1 3   0.536317   7.170619   3.179581  10.350200   # C_3
 340 1 2  -0.653442   8.377659   3.528590  10.350200   # O_3
 341 1 2  -0.657801   6.821610   1.972541  10.350200   # O_3
 342 1 3  -0.105359   6.106618   4.243582  10.350200   # C_3
 343 1 3  -0.041972   4.812636   3.816533  10.350200   # C_3
 344 1 4   0.057412   4.580585   2.700574  10.350200   # H_
 345 1 2  -0.204107   2.582168   4.501716  11.015097   # O_3
 346 1 3   0.181823   3.817568   4.812636  10.350200   # C_3
 347 1 3  -0.203924   4.243582   6.106618  10.350200   # C_3
 348 1 3   0.052860   5.537564   6.532632  10.350200   # C_3
 349 1 3  -0.011508   6.533667   5.537564  10.350200   # C_3
 350 1 4   0.042239   7.649626   5.769615  10.350200   # H_
 351 1 4   0.023860   5.769615   7.648591  10.350200   # H_
 352 1 2  -0.665044   3.528590   8.377452  10.350200   # O_3
 353 1 3   0.571583   3.179581   7.170619  10.350200   # C_3
 354 1 2  -0.646115   1.972541   6.821610  10.350200   # O_3
 355 1 3   0.044315   1.780441   3.747186  10.191842   # C_3
 356 1 3  -0.052279   1.297294   2.568506  11.096656   # C_3
 357 1 4   0.017357   2.293397   3.285774   9.313524   # H_
 358 1 4   0.003281   1.032329   4.487847   9.808264   # H_
 359 1 4   0.025258   2.140835   1.892224  11.346510   # H_
 360 1 3  -0.263081   0.138900   1.830329  10.437970   # C_3
 361 1 4   0.035854   0.920133   3.049997  12.011200   # H_
 362 1 4   0.106466  20.620703   0.925929  11.072644   # H_
 363 1 4   0.017975   0.498259   1.430605   9.460497   # H_
 364 1 3  -0.009933  19.634950   2.745287  10.220615   # C_3
 365 1 4   0.043029  19.094670   2.910269  11.137229   # H_
 366 1 4   0.029067  18.937554   2.266280   9.499414   # H_
 367 1 4   0.073566  19.924549   3.665627   9.760032   # H_
 368 1 3   0.536898   7.170619  13.529781   0.000000   # C_3
 369 1 2  -0.686823   8.377659  13.878790   0.000000   # O_3
 370 1 2  -0.683906   6.821610  12.322741   0.000000   # O_3
 371 1 3  -0.131553   6.106618  14.593782   0.000000   # C_3
 372 1 3  -0.026298   4.812636  14.166733   0.000000   # C_3
 373 1 4   0.031784   4.580585  13.050774   0.000000   # H_
 374 1 2  -0.103144   2.448236  14.793541  20.681563   # O_3
 375 1 3   0.084498   3.817568  15.162629   0.000000   # C_3
 376 1 3  -0.186231   4.243582  16.456611   0.000000   # C_3
 377 1 3   0.030543   5.537564  16.882832   0.000000   # C_3
 378 1 3  -0.009480   6.533667  15.887764   0.000000   # C_3
 379 1 4   0.022134   7.649626  16.119815   0.000000   # H_
 380 1 4   0.005004   5.769615  17.998791   0.000000   # H_
 381 1 2  -0.733993   3.528590  18.727652   0.000000   # O_3
 382 1 3   0.545981   3.179581  17.520612   0.000000   # C_3
 383 1 2  -0.769606   1.972541  17.171603   0.000000   # O_3
 384 1 3   0.019312   2.302505  14.004028  19.522547   # C_3
 385 1 3  -0.034444   1.363949  12.862194  19.757704   # C_3
 386 1 4   0.051523   3.222638  13.641978  19.020770   # H_
 387 1 4   0.044149   1.925551  14.668096  18.737174   # H_
 388 1 4   0.016918   0.640056  12.780634  18.921201   # H_
 389 1 3  -0.125717   0.575264  12.887034   0.408626   # C_3
 390 1 4   0.059193   1.875042  12.019480  19.834088   # H_
 391 1 4   0.042948   1.192757  13.378255   1.224843   # H_
 392 1 4  -0.020187   0.288357  11.823654   0.630741   # H_
 393 1 3  -0.284402  20.037159  13.670958   0.229153   # C_3
 394 1 4   0.189229  20.166744  14.597922  20.317443   # H_
 395 1 4   0.120046  19.688357  13.955175   1.213664   # H_
 396 1 4   0.166257  19.241850  13.038768  20.470212   # H_
 397 1 3   0.525681  17.520819  17.520819   0.000000   # C_3
 398 1 2  -0.645188  18.727859  17.171810   0.000000   # O_3
 399 1 2  -0.645174  17.171810  18.727859   0.000000   # O_3
 400 1 3  -0.104157  16.456818  16.456818   0.000000   # C_3
 401 1 3  -0.053110  15.162836  16.883867   0.000000   # C_3
 402 1 4   0.042577  14.930785  17.999826   0.000000   # H_
 403 1 2  -0.257369  12.825347  16.268444   0.386062   # O_3
 404 1 3   0.171399  14.167768  15.887971   0.000000   # C_3
 405 1 3  -0.220350  14.593782  14.593989   0.000000   # C_3
 406 1 3   0.049751  15.887764  14.167768   0.000000   # C_3
 407 1 3  -0.015640  16.883867  15.162836   0.000000   # C_3
 408 1 4   0.025408  17.999826  14.930785   0.000000   # H_
 409 1 4   0.015653  16.119815  13.051809   0.000000   # H_
 410 1 2  -0.768737  13.878790  12.322948   0.000000   # O_3
 411 1 3   0.562922  13.529781  13.529988   0.000000   # C_3
 412 1 2  -0.760984  12.322741  13.878997   0.000000   # O_3
 413 1 3   0.110115  11.983462  16.374430  20.010456   # C_3
 414 1 3   0.078114  10.517045  16.187092  20.551771   # C_3
 415 1 4   0.042276  12.182806  15.541860  19.258203   # H_
 416 1 4   0.023577  12.176803  17.325614  19.484459   # H_
 417 1 4   0.033580   9.714077  15.933512  19.852098   # H_
 418 1 3  -0.099034   9.945507  17.242191   0.738383   # C_3
 419 1 4  -0.088066  10.613923  15.378120   0.515233   # H_
 420 1 4   0.044359  10.720944  17.765290   1.328552   # H_
 421 1 4   0.053147   9.168414  16.779537   1.358153   # H_
 422 1 3  -0.282474   9.078781  18.217180   0.021942   # C_3
 423 1 4   0.133319   8.892271  17.954699  19.682975   # H_
 424 1 4   0.059535   9.683647  19.104399   0.067483   # H_
 425 1 4   0.077901   8.138776  18.451509   0.529930   # H_
 426 1 3   0.524161  17.520819   7.170619  10.350200   # C_3
 427 1 2  -0.600613  18.727859   6.821610  10.350200   # O_3
 428 1 2  -0.651155  17.171810   8.377659  10.350200   # O_3
 429 1 3  -0.094686  16.456818   6.106618  10.350200   # C_3
 430 1 3  -0.051776  15.162836   6.533667  10.350200   # C_3
 431 1 4   0.056044  14.930785   7.649626  10.350200   # H_
 432 1 2  -0.220178  12.840665   5.932942  10.667537   # O_3
 433 1 3   0.191198  14.167768   5.537564  10.350200   # C_3
 434 1 3  -0.210307  14.593782   4.243582  10.350200   # C_3
 435 1 3   0.057788  15.887764   3.817568  10.350200   # C_3
 436 1 3  -0.009152  16.883867   4.812636  10.350200   # C_3
 437 1 4   0.051929  17.999826   4.580585  10.350200   # H_
 438 1 4   0.035245  16.119815   2.701609  10.350200   # H_
 439 1 2  -0.734014  13.878790   1.972748  10.350200   # O_3
 440 1 3   0.561315  13.529781   3.179581  10.350200   # C_3
 441 1 2  -0.728403  12.322741   3.528590  10.350200   # O_3
 442 1 3   0.078848  12.010165   6.015743   9.579938   # C_3
 443 1 3  -0.121727  10.572729   5.703167  10.110903   # C_3
 444 1 4   0.033319  12.292105   5.302614   8.770138   # H_
 445 1 4   0.009621  12.043286   7.040827   9.169449   # H_
 446 1 4   0.047731   9.794808   5.366786   9.463809   # H_
 447 1 3  -0.000079   9.867260   6.751849  10.922980   # C_3
 448 1 4  -0.008619  10.702728   4.938701  10.784908   # H_
 449 1 4   0.031668  10.667537   7.194631  11.568212   # H_
 450 1 4   0.029081   9.103001   6.286711  11.595329   # H_
 451 1 3  -0.180294   9.207745   7.824544  10.144231   # C_3
 452 1 4   0.060243   8.935742   7.503067   9.114800   # H_
 453 1 4   0.057650   9.959376   8.603293  10.136365   # H_
 454 1 4   0.059577   8.344331   8.206467  10.701072   # H_
 455 1 3   0.518748   7.170619  17.520819  10.350200   # C_3
 456 1 2  -0.732462   8.377659  17.171810  10.350200   # O_3
 457 1 2  -0.697807   6.821610  18.727859  10.350200   # O_3
 458 1 3  -0.100351   6.106618  16.456818  10.350200   # C_3
 459 1 3  -0.053226   4.812636  16.883867  10.350200   # C_3
 460 1 4   0.061360   4.580585  17.999826  10.350200   # H_
 461 1 2  -0.241766   2.511166  16.266995  10.786357   # O_3
 462 1 3   0.196248   3.817568  15.887971  10.350200   # C_3
 463 1 3  -0.215559   4.243582  14.593989  10.350200   # C_3
 464 1 3   0.058711   5.537564  14.167768  10.350200   # C_3
 465 1 3  -0.014845   6.533667  15.162836  10.350200   # C_3
 466 1 4   0.040025   7.649626  14.930785  10.350200   # H_
 467 1 4   0.032135   5.769615  13.051809  10.350200   # H_
 468 1 2  -0.738633   3.528590  12.322948  10.350200   # O_3
 469 1 3   0.570230   3.179581  13.529988  10.350200   # C_3
 470 1 2  -0.749003   1.972541  13.878997  10.350200   # O_3
 471 1 3   0.216173   1.578820  16.419143   9.697309   # C_3
 472 1 3  -0.557054   0.212386  16.157697  10.270089   # C_3
 473 1 4  -0.000480   1.872972  15.803927   8.789597   # H_
 474 1 4  -0.033812   1.502642  17.446090   9.416819   # H_
 475 1 4   0.210932  20.102572  15.843465   9.588839   # H_
 476 1 3   0.437882  20.340627  17.173259  11.116943   # C_3
 477 1 4   0.104383   0.405314  15.395301  10.949477   # H_
 478 1 4  -0.122065   0.424979  17.626391  11.800056   # H_
 479 1 4  -0.047779  19.473487  16.734203  11.659914   # H_
 480 1 3  -0.391835  19.723341  18.254234  10.370900   # C_3
 481 1 4   0.133502  19.318027  17.956148   9.393428   # H_
 482 1 4   0.154222  20.537281  18.994273  10.324324   # H_
 483 1 4   0.119544  18.934656  18.712127  10.934986   # H_
 484 1 3   0.525069   7.170619   7.170619   0.000000   # C_3
 485 1 2  -0.771906   8.377659   6.821610   0.000000   # O_3
 486 1 2  -0.773828   6.821610   8.377659   0.000000   # O_3
 487 1 3  -0.126857   6.106618   6.106618   0.000000   # C_3
 488 1 3  -0.051729   4.812636   6.533667   0.000000   # C_3
 489 1 4   0.032877   4.580585   7.649626   0.000000   # H_