 (written by mofun)

864 atoms
480 bonds
984 angles
1632 dihedrals
0 impropers

10 atom types
5 bond types
9 angle types
14 dihedral types
   0.000000  20.700400 xlo xhi
   0.000000  20.700400 ylo yhi
   0.000000  20.700400 zlo zhi

Masses

 1 91.2240   # Zr3+4
 2 15.9994   # O_3
 3 12.0107   # C_3
 4 1.0079   # H_
 5 1.0079   # H_
 6 12.0107   # C_2
 7 12.0107   # C_3
 8 12.0107   # C_R
 9 14.0067   # N_3
 10 15.9994   # O_1

Pair Coeffs

 1   0.069000   2.783168 # Zr3+4
 2   0.060000   3.118146 # O_3
 3   0.105000   3.430851 # C_3
 4   0.044000   2.571134 # H_
 5 0.044000 2.571134   # H_
 6 0.105000 3.430851   # C_2
 7 0.105000 3.430851   # C_3
 8 0.105000 3.430851   # C_R
 9 0.069000 3.260689   # N_3
 10 0.060000 3.118146   # O_1

Bond Coeffs

 1 560.312976 1.423192   # C_R N_3
 2 527.945261 1.044419   # H_ N_3
 3 528.634538 1.451071   # C_3 N_3
 4 331.069389 1.109401   # C_3 H_
 5 349.795899 1.514000   # C_3 C_3

Angle Coeffs

 1 cosine/periodic  282.369526  -1  3   # C_R C_R N_3
 2 fourier  150.574599  0.317506  0.313225  0.272502   # C_R N_3 H_
 3 fourier  268.482172  0.317506  0.313225  0.272502   # C_3 N_3 C_R
 4 fourier  144.695053  0.317506  0.313225  0.272502   # C_3 N_3 H_
 5 fourier  169.780468  0.343737  0.374972  0.281246   # H_ C_3 N_3
 6 fourier  303.297032  0.343737  0.374972  0.281246   # C_3 C_3 N_3
 7 fourier  117.318683  0.343737  0.374972  0.281246   # C_3 C_3 H_
 8 fourier  214.211821  0.343737  0.374972  0.281246   # C_3 C_3 C_3
 9 fourier  75.498766  0.343737  0.374972  0.281246   # H_ C_3 H_

Dihedral Coeffs

 1 harmonic 3.368555 -1 2   # C_2 C_R C_R N_3 M=4
 2 harmonic 3.368555 -1 2   # C_R C_R C_R N_3 M=4
 3 harmonic 0.125000 -1 6   # C_R C_R N_3 H_ M=4
 4 harmonic 0.125000 -1 6   # C_3 N_3 C_R C_R M=4
 5 harmonic 3.368555 -1 2   # H_ C_R C_R N_3 M=4
 6 harmonic 0.081375 1 3   # C_R N_3 C_3 H_ M=6
 7 harmonic 0.081375 1 3   # C_3 C_3 N_3 C_R M=6
 8 harmonic 0.081375 1 3   # H_ C_3 N_3 H_ M=6
 9 harmonic 0.081375 1 3   # C_3 C_3 N_3 H_ M=6
 10 harmonic 0.117722 1 3   # C_3 C_3 C_3 N_3 M=9
 11 harmonic 0.117722 1 3   # H_ C_3 C_3 N_3 M=9
 12 harmonic 0.117722 1 3   # C_3 C_3 C_3 H_ M=9
 13 harmonic 0.117722 1 3   # H_ C_3 C_3 H_ M=9
 14 harmonic 0.117722 1 3   # C_3 C_3 C_3 C_3 M=9

Atoms

 1 1 1   0.000000   2.481771   0.000000   0.000000   # Zr3+4
 2 1 1   0.000000   2.481771  10.350200  10.350200   # Zr3+4
 3 1 1   0.000000  12.831971   0.000000  10.350200   # Zr3+4
 4 1 1   0.000000  12.831971  10.350200   0.000000   # Zr3+4
 5 1 1   0.000000  18.218629   0.000000   0.000000   # Zr3+4
 6 1 1   0.000000  18.218629  10.350200  10.350200   # Zr3+4
 7 1 1   0.000000   7.868429   0.000000  10.350200   # Zr3+4
 8 1 1   0.000000   7.868429  10.350200   0.000000   # Zr3+4
 9 1 1   0.000000   0.000000   2.481771   0.000000   # Zr3+4
 10 1 1   0.000000   0.000000  12.831971  10.350200   # Zr3+4
 11 1 1   0.000000  10.350200   2.481771  10.350200   # Zr3+4
 12 1 1   0.000000  10.350200  12.831971   0.000000   # Zr3+4
 13 1 1   0.000000   0.000000  18.218629   0.000000   # Zr3+4
 14 1 1   0.000000   0.000000   7.868429  10.350200   # Zr3+4
 15 1 1   0.000000  10.350200  18.218629  10.350200   # Zr3+4
 16 1 1   0.000000  10.350200   7.868429   0.000000   # Zr3+4
 17 1 1   0.000000   0.000000   0.000000   2.481771   # Zr3+4
 18 1 1   0.000000   0.000000  10.350200  12.831971   # Zr3+4
 19 1 1   0.000000  10.350200   0.000000  12.831971   # Zr3+4
 20 1 1   0.000000  10.350200  10.350200   2.481771   # Zr3+4
 21 1 1   0.000000   0.000000   0.000000  18.218629   # Zr3+4
 22 1 1   0.000000   0.000000  10.350200   7.868429   # Zr3+4
 23 1 1   0.000000  10.350200   0.000000   7.868429   # Zr3+4
 24 1 1   0.000000  10.350200  10.350200  18.218629   # Zr3+4
 25 1 2   0.000000   1.161292   9.188908   9.188908   # O_3
 26 1 2   0.000000  11.511492  19.539108   9.188908   # O_3
 27 1 2   0.000000  11.511492   9.188908  19.539108   # O_3
 28 1 2   0.000000   9.188908   1.161292   9.188908   # O_3
 29 1 2   0.000000   9.188908  11.511492  19.539108   # O_3
 30 1 2   0.000000  19.539108  19.539108   1.161292   # O_3
 31 1 2   0.000000  19.539108   9.188908  11.511492   # O_3
 32 1 2   0.000000   1.161292   1.161292   1.161292   # O_3
 33 1 2   0.000000  11.511492  11.511492   1.161292   # O_3
 34 1 2   0.000000  19.539108   1.161292   1.161292   # O_3
 35 1 2   0.000000  19.539108  11.511492  11.511492   # O_3
 36 1 2   0.000000   9.188908   1.161292  11.511492   # O_3
 37 1 2   0.000000   9.188908  11.511492   1.161292   # O_3
 38 1 2   0.000000   1.161292  19.539108   1.161292   # O_3
 39 1 2   0.000000   1.161292   9.188908  11.511492   # O_3
 40 1 2   0.000000  11.511492  19.539108  11.511492   # O_3
 41 1 2   0.000000  11.511492   9.188908   1.161292   # O_3
 42 1 2   0.000000  19.539108  19.539108  19.539108   # O_3
 43 1 2   0.000000  19.539108   9.188908   9.188908   # O_3
 44 1 2   0.000000   9.188908  19.539108   9.188908   # O_3
 45 1 2   0.000000   9.188908   9.188908  19.539108   # O_3
 46 1 2   0.000000   1.161292   1.161292  19.539108   # O_3
 47 1 2   0.000000   1.161292  11.511492   9.188908   # O_3
 48 1 2   0.000000  11.511492   1.161292   9.188908   # O_3
 49 1 6   0.000000   3.179581   0.000000  17.520819   # C_2
 50 1 10   0.000000   3.528595   0.000000  18.727815   # O_1
 51 1 10   0.000000   1.972577  20.700400  17.171832   # O_1
 52 1 8   0.000000   4.243569   0.000000  16.456806   # C_R
 53 1 8   0.000000   3.816555  20.700400  15.162811   # C_R
 54 2 9   0.000000   2.466940  20.680661  14.734163   # N_3
 55 1 5   0.000000   4.580531  20.700400  13.051803   # H_
 56 1 8   0.000000   4.812543  20.700400  14.167800   # C_R
 57 1 8   0.000000   6.106548   0.000000  14.593785   # C_R
 58 1 8   0.000000   6.532563   0.000000  15.887781   # C_R
 59 1 8   0.000000   5.537574   0.000000  16.883792   # C_R
 60 1 5   0.000000   5.769587   0.000000  17.999789   # H_
 61 1 5   0.000000   7.648566   0.000000  16.119768   # H_
 62 1 10   0.000000   8.377540   0.000000  13.878760   # O_1
 63 1 6   0.000000   7.170536   0.000000  13.529773   # C_2
 64 1 10   0.000000   6.821523  20.700400  12.322777   # O_1
 65 2 5   0.000000   1.899521  20.645194  15.609220   # H_
 66 2 7   0.000000   2.034370   1.095091  13.884287   # C_3
 67 2 5   0.000000   2.750811   1.258649  13.070288   # H_
 68 2 7   0.000000   1.914989   2.414744  14.676109   # C_3
 69 2 7   0.000000   0.696920   0.683781  13.233676   # C_3
 70 2 7   0.000000  20.186598   2.744308  14.049018   # C_3
 71 2 7   0.000000   0.500052   2.658791  15.190691   # C_3
 72 2 5   0.000000   2.183948   3.246066  14.010690   # H_
 73 2 5   0.000000   2.622911   2.456801  15.510575   # H_
 74 2 5   0.000000   0.214607   1.846950  15.870535   # H_
 75 2 5   0.000000   0.465846   3.582608  15.779362   # H_
 76 2 7   0.000000  20.564878   1.895113  12.835110   # C_3
 77 2 5   0.000000  19.656205   1.577087  12.311587   # H_
 78 2 5   0.000000   0.435373   2.506752  12.125152   # H_
 79 2 5   0.000000   0.899387   0.062183  12.352753   # H_
 80 2 5   0.000000  19.204729   2.435594  14.427869   # H_
 81 2 5   0.000000   0.107267   0.057624  13.917053   # H_
 82 2 5   0.000000  20.075060   3.786956  13.727560   # H_
 83 1 6   0.000000   3.179581  10.350200   7.170619   # C_2
 84 1 10   0.000000   3.528595  10.350200   8.377615   # O_1
 85 1 10   0.000000   1.972577  10.350200   6.821632   # O_1
 86 1 8   0.000000   4.243569  10.350200   6.106606   # C_R
 87 1 8   0.000000   3.816555  10.350200   4.812611   # C_R
 88 2 9   0.000000   2.466940  10.330461   4.383963   # N_3
 89 1 5   0.000000   4.580531  10.350200   2.701603   # H_
 90 1 8   0.000000   4.812543  10.350200   3.817600   # C_R
 91 1 8   0.000000   6.106548  10.350200   4.243585   # C_R
 92 1 8   0.000000   6.532563  10.350200   5.537581   # C_R
 93 1 8   0.000000   5.537574  10.350200   6.533592   # C_R
 94 1 5   0.000000   5.769587  10.350200   7.649589   # H_
 95 1 5   0.000000   7.648566  10.350200   5.769568   # H_
 96 1 10   0.000000   8.377540  10.350200   3.528560   # O_1
 97 1 6   0.000000   7.170536  10.350200   3.179573   # C_2
 98 1 10   0.000000   6.821523  10.350200   1.972577   # O_1
 99 2 5   0.000000   1.899521  10.294994   5.259020   # H_
 100 2 7   0.000000   2.034370  11.445291   3.534087   # C_3
 101 2 5   0.000000   2.750811  11.608849   2.720088   # H_
 102 2 7   0.000000   1.914989  12.764944   4.325909   # C_3
 103 2 7   0.000000   0.696920  11.033981   2.883476   # C_3
 104 2 7   0.000000  20.186598  13.094508   3.698818   # C_3
 105 2 7   0.000000   0.500052  13.008991   4.840491   # C_3
 106 2 5   0.000000   2.183948  13.596266   3.660490   # H_
 107 2 5   0.000000   2.622911  12.807001   5.160375   # H_
 108 2 5   0.000000   0.214607  12.197150   5.520335   # H_
 109 2 5   0.000000   0.465846  13.932808   5.429162   # H_
 110 2 7   0.000000  20.564878  12.245313   2.484910   # C_3
 111 2 5   0.000000  19.656205  11.927287   1.961387   # H_
 112 2 5   0.000000   0.435373  12.856952   1.774952   # H_
 113 2 5   0.000000   0.899387  10.412383   2.002553   # H_
 114 2 5   0.000000  19.204729  12.785794   4.077669   # H_
 115 2 5   0.000000   0.107267  10.407824   3.566853   # H_
 116 2 5   0.000000  20.075060  14.137156   3.377360   # H_
 117 1 6   0.000000  13.529781   0.000000   7.170619   # C_2
 118 1 10   0.000000  13.878795   0.000000   8.377615   # O_1
 119 1 10   0.000000  12.322777  20.700400   6.821632   # O_1
 120 1 8   0.000000  14.593769   0.000000   6.106606   # C_R
 121 1 8   0.000000  14.166755  20.700400   4.812611   # C_R
 122 2 9   0.000000  12.817140  20.680661   4.383963   # N_3
 123 1 5   0.000000  14.930731  20.700400   2.701603   # H_
 124 1 8   0.000000  15.162743  20.700400   3.817600   # C_R
 125 1 8   0.000000  16.456748   0.000000   4.243585   # C_R
 126 1 8   0.000000  16.882763   0.000000   5.537581   # C_R
 127 1 8   0.000000  15.887774   0.000000   6.533592   # C_R
 128 1 5   0.000000  16.119787   0.000000   7.649589   # H_
 129 1 5   0.000000  17.998766   0.000000   5.769568   # H_
 130 1 10   0.000000  18.727740   0.000000   3.528560   # O_1
 131 1 6   0.000000  17.520736   0.000000   3.179573   # C_2
 132 1 10   0.000000  17.171723  20.700400   1.972577   # O_1
 133 2 5   0.000000  12.249721  20.645194   5.259020   # H_
 134 2 7   0.000000  12.384570   1.095091   3.534087   # C_3
 135 2 5   0.000000  13.101011   1.258649   2.720088   # H_
 136 2 7   0.000000  12.265189   2.414744   4.325909   # C_3
 137 2 7   0.000000  11.047120   0.683781   2.883476   # C_3
 138 2 7   0.000000   9.836398   2.744308   3.698818   # C_3
 139 2 7   0.000000  10.850252   2.658791   4.840491   # C_3
 140 2 5   0.000000  12.534148   3.246066   3.660490   # H_
 141 2 5   0.000000  12.973111   2.456801   5.160375   # H_
 142 2 5   0.000000  10.564807   1.846950   5.520335   # H_
 143 2 5   0.000000  10.816046   3.582608   5.429162   # H_
 144 2 7   0.000000  10.214678   1.895113   2.484910   # C_3
 145 2 5   0.000000   9.306005   1.577087   1.961387   # H_
 146 2 5   0.000000  10.785573   2.506752   1.774952   # H_
 147 2 5   0.000000  11.249587   0.062183   2.002553   # H_
 148 2 5   0.000000   8.854529   2.435594   4.077669   # H_
 149 2 5   0.000000  10.457467   0.057624   3.566853   # H_
 150 2 5   0.000000   9.724860   3.786956   3.377360   # H_
 151 1 6   0.000000  13.529781  10.350200  17.520819   # C_2
 152 1 10   0.000000  13.878795  10.350200  18.727815   # O_1
 153 1 10   0.000000  12.322777  10.350200  17.171832   # O_1
 154 1 8   0.000000  14.593769  10.350200  16.456806   # C_R
 155 1 8   0.000000  14.166755  10.350200  15.162811   # C_R
 156 2 9   0.000000  12.817140  10.330461  14.734163   # N_3
 157 1 5   0.000000  14.930731  10.350200  13.051803   # H_
 158 1 8   0.000000  15.162743  10.350200  14.167800   # C_R
 159 1 8   0.000000  16.456748  10.350200  14.593785   # C_R
 160 1 8   0.000000  16.882763  10.350200  15.887781   # C_R
 161 1 8   0.000000  15.887774  10.350200  16.883792   # C_R
 162 1 5   0.000000  16.119787  10.350200  17.999789   # H_
 163 1 5   0.000000  17.998766  10.350200  16.119768   # H_
 164 1 10   0.000000  18.727740  10.350200  13.878760   # O_1
 165 1 6   0.000000  17.520736  10.350200  13.529773   # C_2
 166 1 10   0.000000  17.171723  10.350200  12.322777   # O_1
 167 2 5   0.000000  12.249721  10.294994  15.609220   # H_
 168 2 7   0.000000  12.384570  11.445291  13.884287   # C_3
 169 2 5   0.000000  13.101011  11.608849  13.070288   # H_
 170 2 7   0.000000  12.265189  12.764944  14.676109   # C_3
 171 2 7   0.000000  11.047120  11.033981  13.233676   # C_3
 172 2 7   0.000000   9.836398  13.094508  14.049018   # C_3
 173 2 7   0.000000  10.850252  13.008991  15.190691   # C_3
 174 2 5   0.000000  12.534148  13.596266  14.010690   # H_
 175 2 5   0.000000  12.973111  12.807001  15.510575   # H_
 176 2 5   0.000000  10.564807  12.197150  15.870535   # H_
 177 2 5   0.000000  10.816046  13.932808  15.779362   # H_
 178 2 7   0.000000  10.214678  12.245313  12.835110   # C_3
 179 2 5   0.000000   9.306005  11.927287  12.311587   # H_
 180 2 5   0.000000  10.785573  12.856952  12.125152   # H_
 181 2 5   0.000000  11.249587  10.412383  12.352753   # H_
 182 2 5   0.000000   8.854529  12.785794  14.427869   # H_
 183 2 5   0.000000  10.457467  10.407824  13.917053   # H_
 184 2 5   0.000000   9.724860  14.137156  13.727560   # H_
 185 1 6   0.000000  17.520819   0.000000  17.520819   # C_2
 186 1 10   0.000000  17.171805   0.000000  18.727815   # O_1
 187 1 10   0.000000  18.727823   0.000000  17.171832   # O_1
 188 1 8   0.000000  16.456831   0.000000  16.456806   # C_R
 189 1 8   0.000000  16.883845   0.000000  15.162811   # C_R
 190 2 9   0.000000  18.233460   0.019739  14.734163   # N_3
 191 1 5   0.000000  16.119869   0.000000  13.051803   # H_
 192 1 8   0.000000  15.887857   0.000000  14.167800   # C_R
 193 1 8   0.000000  14.593852   0.000000  14.593785   # C_R
 194 1 8   0.000000  14.167837   0.000000  15.887781   # C_R
 195 1 8   0.000000  15.162826   0.000000  16.883792   # C_R
 196 1 5   0.000000  14.930813   0.000000  17.999789   # H_
 197 1 5   0.000000  13.051834   0.000000  16.119768   # H_
 198 1 10   0.000000  12.322860   0.000000  13.878760   # O_1
 199 1 6   0.000000  13.529864   0.000000  13.529773   # C_2
 200 1 10   0.000000  13.878877   0.000000  12.322777   # O_1
 201 2 5   0.000000  18.800879   0.055206  15.609220   # H_
 202 2 7   0.000000  18.666030  19.605309  13.884287   # C_3
 203 2 5   0.000000  17.949589  19.441751  13.070288   # H_
 204 2 7   0.000000  18.785411  18.285656  14.676109   # C_3
 205 2 7   0.000000  20.003480  20.016619  13.233676   # C_3
 206 2 7   0.000000   0.513802  17.956092  14.049018   # C_3
 207 2 7   0.000000  20.200348  18.041609  15.190691   # C_3
 208 2 5   0.000000  18.516452  17.454334  14.010690   # H_
 209 2 5   0.000000  18.077489  18.243599  15.510575   # H_
 210 2 5   0.000000  20.485793  18.853450  15.870535   # H_
 211 2 5   0.000000  20.234554  17.117792  15.779362   # H_
 212 2 7   0.000000   0.135522  18.805287  12.835110   # C_3
 213 2 5   0.000000   1.044195  19.123313  12.311587   # H_
 214 2 5   0.000000  20.265027  18.193648  12.125152   # H_
 215 2 5   0.000000  19.801013  20.638217  12.352753   # H_
 216 2 5   0.000000   1.495671  18.264806  14.427869   # H_
 217 2 5   0.000000  20.593133  20.642776  13.917053   # H_
 218 2 5   0.000000   0.625340  16.913444  13.727560   # H_
 219 1 6   0.000000  17.520819  10.350200   7.170619   # C_2
 220 1 10   0.000000  17.171805  10.350200   8.377615   # O_1
 221 1 10   0.000000  18.727823  10.350200   6.821632   # O_1
 222 1 8   0.000000  16.456831  10.350200   6.106606   # C_R
 223 1 8   0.000000  16.883845  10.350200   4.812611   # C_R
 224 2 9   0.000000  18.233460  10.369939   4.383963   # N_3
 225 1 5   0.000000  16.119869  10.350200   2.701603   # H_
 226 1 8   0.000000  15.887857  10.350200   3.817600   # C_R
 227 1 8   0.000000  14.593852  10.350200   4.243585   # C_R
 228 1 8   0.000000  14.167837  10.350200   5.537581   # C_R
 229 1 8   0.000000  15.162826  10.350200   6.533592   # C_R
 230 1 5   0.000000  14.930813  10.350200   7.649589   # H_
 231 1 5   0.000000  13.051834  10.350200   5.769568   # H_
 232 1 10   0.000000  12.322860  10.350200   3.528560   # O_1
 233 1 6   0.000000  13.529864  10.350200   3.179573   # C_2
 234 1 10   0.000000  13.878877  10.350200   1.972577   # O_1
 235 2 5   0.000000  18.800879  10.405406   5.259020   # H_
 236 2 7   0.000000  18.666030   9.255109   3.534087   # C_3
 237 2 5   0.000000  17.949589   9.091551   2.720088   # H_
 238 2 7   0.000000  18.785411   7.935456   4.325909   # C_3
 239 2 7   0.000000  20.003480   9.666419   2.883476   # C_3
 240 2 7   0.000000   0.513802   7.605892   3.698818   # C_3
 241 2 7   0.000000  20.200348   7.691409   4.840491   # C_3
 242 2 5   0.000000  18.516452   7.104134   3.660490   # H_
 243 2 5   0.000000  18.077489   7.893399   5.160375   # H_
 244 2 5   0.000000  20.485793   8.503250   5.520335   # H_
 245 2 5   0.000000  20.234554   6.767592   5.429162   # H_
 246 2 7   0.000000   0.135522   8.455087   2.484910   # C_3
 247 2 5   0.000000   1.044195   8.773113   1.961387   # H_
 248 2 5   0.000000  20.265027   7.843448   1.774952   # H_
 249 2 5   0.000000  19.801013  10.288017   2.002553   # H_
 250 2 5   0.000000   1.495671   7.914606   4.077669   # H_
 251 2 5   0.000000  20.593133  10.292576   3.566853   # H_
 252 2 5   0.000000   0.625340   6.563244   3.377360   # H_
 253 1 6   0.000000   7.170619   0.000000   7.170619   # C_2
 254 1 10   0.000000   6.821605   0.000000   8.377615   # O_1
 255 1 10   0.000000   8.377623   0.000000   6.821632   # O_1
 256 1 8   0.000000   6.106631   0.000000   6.106606   # C_R
 257 1 8   0.000000   6.533645   0.000000   4.812611   # C_R
 258 2 9   0.000000   7.883260   0.019739   4.383963   # N_3
 259 1 5   0.000000   5.769669   0.000000   2.701603   # H_
 260 1 8   0.000000   5.537657   0.000000   3.817600   # C_R
 261 1 8   0.000000   4.243652   0.000000   4.243585   # C_R
 262 1 8   0.000000   3.817637   0.000000   5.537581   # C_R
 263 1 8   0.000000   4.812626   0.000000   6.533592   # C_R
 264 1 5   0.000000   4.580613   0.000000   7.649589   # H_
 265 1 5   0.000000   2.701634   0.000000   5.769568   # H_
 266 1 10   0.000000   1.972660   0.000000   3.528560   # O_1
 267 1 6   0.000000   3.179664   0.000000   3.179573   # C_2
 268 1 10   0.000000   3.528677   0.000000   1.972577   # O_1
 269 2 5   0.000000   8.450679   0.055206   5.259020   # H_
 270 2 7   0.000000   8.315830  19.605309   3.534087   # C_3
 271 2 5   0.000000   7.599389  19.441751   2.720088   # H_
 272 2 7   0.000000   8.435211  18.285656   4.325909   # C_3
 273 2 7   0.000000   9.653280  20.016619   2.883476   # C_3
 274 2 7   0.000000  10.864002  17.956092   3.698818   # C_3
 275 2 7   0.000000   9.850148  18.041609   4.840491   # C_3
 276 2 5   0.000000   8.166252  17.454334   3.660490   # H_
 277 2 5   0.000000   7.727289  18.243599   5.160375   # H_
 278 2 5   0.000000  10.135593  18.853450   5.520335   # H_
 279 2 5   0.000000   9.884354  17.117792   5.429162   # H_
 280 2 7   0.000000  10.485722  18.805287   2.484910   # C_3
 281 2 5   0.000000  11.394395  19.123313   1.961387   # H_
 282 2 5   0.000000   9.914827  18.193648   1.774952   # H_
 283 2 5   0.000000   9.450813  20.638217   2.002553   # H_
 284 2 5   0.000000  11.845871  18.264806   4.077669   # H_
 285 2 5   0.000000  10.242933  20.642776   3.566853   # H_
 286 2 5   0.000000  10.975540  16.913444   3.377360   # H_
 287 1 6   0.000000   7.170619  10.350200  17.520819   # C_2
 288 1 10   0.000000   6.821605  10.350200  18.727815   # O_1
 289 1 10   0.000000   8.377623  10.350200  17.171832   # O_1
 290 1 8   0.000000   6.106631  10.350200  16.456806   # C_R
 291 1 8   0.000000   6.533645  10.350200  15.162811   # C_R
 292 2 9   0.000000   7.883260  10.369939  14.734163   # N_3
 293 1 5   0.000000   5.769669  10.350200  13.051803   # H_
 294 1 8   0.000000   5.537657  10.350200  14.167800   # C_R
 295 1 8   0.000000   4.243652  10.350200  14.593785   # C_R
 296 1 8   0.000000   3.817637  10.350200  15.887781   # C_R
 297 1 8   0.000000   4.812626  10.350200  16.883792   # C_R
 298 1 5   0.000000   4.580613  10.350200  17.999789   # H_
 299 1 5   0.000000   2.701634  10.350200  16.119768   # H_
 300 1 10   0.000000   1.972660  10.350200  13.878760   # O_1
 301 1 6   0.000000   3.179664  10.350200  13.529773   # C_2
 302 1 10   0.000000   3.528677  10.350200  12.322777   # O_1
 303 2 5   0.000000   8.450679  10.405406  15.609220   # H_
 304 2 7   0.000000   8.315830   9.255109  13.884287   # C_3
 305 2 5   0.000000   7.599389   9.091551  13.070288   # H_
 306 2 7   0.000000   8.435211   7.935456  14.676109   # C_3
 307 2 7   0.000000   9.653280   9.666419  13.233676   # C_3
 308 2 7   0.000000  10.864002   7.605892  14.049018   # C_3
 309 2 7   0.000000   9.850148   7.691409  15.190691   # C_3
 310 2 5   0.000000   8.166252   7.104134  14.010690   # H_
 311 2 5   0.000000   7.727289   7.893399  15.510575   # H_
 312 2 5   0.000000  10.135593   8.503250  15.870535   # H_
 313 2 5   0.000000   9.884354   6.767592  15.779362   # H_
 314 2 7   0.000000  10.485722   8.455087  12.835110   # C_3
 315 2 5   0.000000  11.394395   8.773113  12.311587   # H_
 316 2 5   0.000000   9.914827   7.843448  12.125152   # H_
 317 2 5   0.000000   9.450813  10.288017  12.352753   # H_
 318 2 5   0.000000  11.845871   7.914606  14.427869   # H_
 319 2 5   0.000000  10.242933  10.292576  13.917053   # H_
 320 2 5   0.000000  10.975540   6.563244  13.727560   # H_
 321 1 6   0.000000  17.520819   3.179581   0.000000   # C_2
 322 1 10   0.000000  18.727815   3.528595  20.700400   # O_1
 323 1 10   0.000000  17.171832   1.972577   0.000000   # O_1
 324 1 8   0.000000  16.456806   4.243569  20.700400   # C_R
 325 1 8   0.000000  15.162811   3.816555   0.000000   # C_R
 326 2 9   0.000000  14.734163   2.466940  20.680661   # N_3
 327 1 5   0.000000  13.051803   4.580531   0.000000   # H_
 328 1 8   0.000000  14.167800   4.812543   0.000000   # C_R
 329 1 8   0.000000  14.593785   6.106548  20.700400   # C_R
 330 1 8   0.000000  15.887781   6.532563  20.700400   # C_R
 331 1 8   0.000000  16.883792   5.537574  20.700400   # C_R
 332 1 5   0.000000  17.999789   5.769587  20.700400   # H_
 333 1 5   0.000000  16.119768   7.648566  20.700400   # H_
 334 1 10   0.000000  13.878760   8.377540  20.700400   # O_1
 335 1 6   0.000000  13.529773   7.170536  20.700400   # C_2
 336 1 10   0.000000  12.322777   6.821523   0.000000   # O_1
 337 2 5   0.000000  15.609220   1.899521  20.645194   # H_
 338 2 7   0.000000  13.884287   2.034370   1.095091   # C_3
 339 2 5   0.000000  13.070288   2.750811   1.258649   # H_
 340 2 7   0.000000  14.676109   1.914989   2.414744   # C_3
 341 2 7   0.000000  13.233676   0.696920   0.683781   # C_3
 342 2 7   0.000000  14.049018  20.186598   2.744308   # C_3
 343 2 7   0.000000  15.190691   0.500052   2.658791   # C_3
 344 2 5   0.000000  14.010690   2.183948   3.246066   # H_
 345 2 5   0.000000  15.510575   2.622911   2.456801   # H_
 346 2 5   0.000000  15.870535   0.214607   1.846950   # H_
 347 2 5   0.000000  15.779362   0.465846   3.582608   # H_
 348 2 7   0.000000  12.835110  20.564878   1.895113   # C_3
 349 2 5   0.000000  12.311587  19.656205   1.577087   # H_
 350 2 5   0.000000  12.125152   0.435373   2.506752   # H_
 351 2 5   0.000000  12.352753   0.899387   0.062183   # H_
 352 2 5   0.000000  14.427869  19.204729   2.435594   # H_
 353 2 5   0.000000  13.917053   0.107267   0.057624   # H_
 354 2 5   0.000000  13.727560  20.075060   3.786956   # H_
 355 1 6   0.000000  17.520819  13.529781  10.350200   # C_2
 356 1 10   0.000000  18.727815  13.878795  10.350200   # O_1
 357 1 10   0.000000  17.171832  12.322777  10.350200   # O_1
 358 1 8   0.000000  16.456806  14.593769  10.350200   # C_R
 359 1 8   0.000000  15.162811  14.166755  10.350200   # C_R
 360 2 9   0.000000  14.734163  12.817140  10.330461   # N_3
 361 1 5   0.000000  13.051803  14.930731  10.350200   # H_
 362 1 8   0.000000  14.167800  15.162743  10.350200   # C_R
 363 1 8   0.000000  14.593785  16.456748  10.350200   # C_R
 364 1 8   0.000000  15.887781  16.882763  10.350200   # C_R
 365 1 8   0.000000  16.883792  15.887774  10.350200   # C_R
 366 1 5   0.000000  17.999789  16.119787  10.350200   # H_
 367 1 5   0.000000  16.119768  17.998766  10.350200   # H_
 368 1 10   0.000000  13.878760  18.727740  10.350200   # O_1
 369 1 6   0.000000  13.529773  17.520736  10.350200   # C_2
 370 1 10   0.000000  12.322777  17.171723  10.350200   # O_1
 371 2 5   0.000000  15.609220  12.249721  10.294994   # H_
 372 2 7   0.000000  13.884287  12.384570  11.445291   # C_3
 373 2 5   0.000000  13.070288  13.101011  11.608849   # H_
 374 2 7   0.000000  14.676109  12.265189  12.764944   # C_3
 375 2 7   0.000000  13.233676  11.047120  11.033981   # C_3
 376 2 7   0.000000  14.049018   9.836398  13.094508   # C_3
 377 2 7   0.000000  15.190691  10.850252  13.008991   # C_3
 378 2 5   0.000000  14.010690  12.534148  13.596266   # H_
 379 2 5   0.000000  15.510575  12.973111  12.807001   # H_
 380 2 5   0.000000  15.870535  10.564807  12.197150   # H_
 381 2 5   0.000000  15.779362  10.816046  13.932808   # H_
 382 2 7   0.000000  12.835110  10.214678  12.245313   # C_3
 383 2 5   0.000000  12.311587   9.306005  11.927287   # H_
 384 2 5   0.000000  12.125152  10.785573  12.856952   # H_
 385 2 5   0.000000  12.352753  11.249587  10.412383   # H_
 386 2 5   0.000000  14.427869   8.854529  12.785794   # H_
 387 2 5   0.000000  13.917053  10.457467  10.407824   # H_
 388 2 5   0.000000  13.727560   9.724860  14.137156   # H_
 389 1 6   0.000000   7.170619   3.179581  10.350200   # C_2
 390 1 10   0.000000   8.377615   3.528595  10.350200   # O_1
 391 1 10   0.000000   6.821632   1.972577  10.350200   # O_1
 392 1 8   0.000000   6.106606   4.243569  10.350200   # C_R
 393 1 8   0.000000   4.812611   3.816555  10.350200   # C_R
 394 2 9   0.000000   4.383963   2.466940  10.330461   # N_3
 395 1 5   0.000000   2.701603   4.580531  10.350200   # H_
 396 1 8   0.000000   3.817600   4.812543  10.350200   # C_R
 397 1 8   0.000000   4.243585   6.106548  10.350200   # C_R
 398 1 8   0.000000   5.537581   6.532563  10.350200   # C_R
 399 1 8   0.000000   6.533592   5.537574  10.350200   # C_R
 400 1 5   0.000000   7.649589   5.769587  10.350200   # H_
 401 1 5   0.000000   5.769568   7.648566  10.350200   # H_
 402 1 10   0.000000   3.528560   8.377540  10.350200   # O_1
 403 1 6   0.000000   3.179573   7.170536  10.350200   # C_2
 404 1 10   0.000000   1.972577   6.821523  10.350200   # O_1
 405 2 5   0.000000   5.259020   1.899521  10.294994   # H_
 406 2 7   0.000000   3.534087   2.034370  11.445291   # C_3
 407 2 5   0.000000   2.720088   2.750811  11.608849   # H_
 408 2 7   0.000000   4.325909   1.914989  12.764944   # C_3
 409 2 7   0.000000   2.883476   0.696920  11.033981   # C_3
 410 2 7   0.000000   3.698818  20.186598  13.094508   # C_3
 411 2 7   0.000000   4.840491   0.500052  13.008991   # C_3
 412 2 5   0.000000   3.660490   2.183948  13.596266   # H_
 413 2 5   0.000000   5.160375   2.622911  12.807001   # H_
 414 2 5   0.000000   5.520335   0.214607  12.197150   # H_
 415 2 5   0.000000   5.429162   0.465846  13.932808   # H_
 416 2 7   0.000000   2.484910  20.564878  12.245313   # C_3
 417 2 5   0.000000   1.961387  19.656205  11.927287   # H_
 418 2 5   0.000000   1.774952   0.435373  12.856952   # H_
 419 2 5   0.000000   2.002553   0.899387  10.412383   # H_
 420 2 5   0.000000   4.077669  19.204729  12.785794   # H_
 421 2 5   0.000000   3.566853   0.107267  10.407824   # H_
 422 2 5   0.000000   3.377360  20.075060  14.137156   # H_
 423 1 6   0.000000   7.170619  13.529781   0.000000   # C_2
 424 1 10   0.000000   8.377615  13.878795   0.000000   # O_1
 425 1 10   0.000000   6.821632  12.322777  20.700400   # O_1
 426 1 8   0.000000   6.106606  14.593769   0.000000   # C_R
 427 1 8   0.000000   4.812611  14.166755   0.000000   # C_R
 428 2 9   0.000000   4.383963  12.817140  20.680661   # N_3
 429 1 5   0.000000   2.701603  14.930731   0.000000   # H_
 430 1 8   0.000000   3.817600  15.162743   0.000000   # C_R
 431 1 8   0.000000   4.243585  16.456748   0.000000   # C_R
 432 1 8   0.000000   5.537581  16.882763   0.000000   # C_R
 433 1 8   0.000000   6.533592  15.887774   0.000000   # C_R
 434 1 5   0.000000   7.649589  16.119787   0.000000   # H_
 435 1 5   0.000000   5.769568  17.998766   0.000000   # H_
 436 1 10   0.000000   3.528560  18.727740   0.000000   # O_1
 437 1 6   0.000000   3.179573  17.520736   0.000000   # C_2
 438 1 10   0.000000   1.972577  17.171723   0.000000   # O_1
 439 2 5   0.000000   5.259020  12.249721  20.645194   # H_
 440 2 7   0.000000   3.534087  12.384570   1.095091   # C_3
 441 2 5   0.000000   2.720088  13.101011   1.258649   # H_
 442 2 7   0.000000   4.325909  12.265189   2.414744   # C_3
 443 2 7   0.000000   2.883476  11.047120   0.683781   # C_3
 444 2 7   0.000000   3.698818   9.836398   2.744308   # C_3
 445 2 7   0.000000   4.840491  10.850252   2.658791   # C_3
 446 2 5   0.000000   3.660490  12.534148   3.246066   # H_
 447 2 5   0.000000   5.160375  12.973111   2.456801   # H_
 448 2 5   0.000000   5.520335  10.564807   1.846950   # H_
 449 2 5   0.000000   5.429162  10.816046   3.582608   # H_
 450 2 7   0.000000   2.484910  10.214678   1.895113   # C_3
 451 2 5   0.000000   1.961387   9.306005   1.577087   # H_
 452 2 5   0.000000   1.774952  10.785573   2.506752   # H_
 453 2 5   0.000000   2.002553  11.249587   0.062183   # H_
 454 2 5   0.000000   4.077669   8.854529   2.435594   # H_
 455 2 5   0.000000   3.566853  10.457467   0.057624   # H_
 456 2 5   0.000000   3.377360   9.724860   3.786956   # H_
 457 1 6   0.000000  17.520819  17.520819   0.000000   # C_2