 (written by mofun)

480 atoms
96 bonds
144 angles
288 dihedrals
0 impropers

9 atom types
2 bond types
2 angle types
4 dihedral types
   0.000000  20.700400 xlo xhi
   0.000000  20.700400 ylo yhi
   0.000000  20.700400 zlo zhi

Masses

 1 91.2240   # Zr3+4
 2 15.9994   # O_3
 3 12.0107   # C_3
 4 1.0079   # H_
 5 1.0079   # H_
 6 12.0107   # C_2
 7 12.0107   # C_R
 8 15.9994   # O_1
 9 15.9994   # O_3

Pair Coeffs

 1   0.069000   2.783168 # Zr3+4
 2   0.060000   3.118146 # O_3
 3   0.105000   3.430851 # C_3
 4   0.044000   2.571134 # H_
 5 0.044000 2.571134   # H_
 6 0.105000 3.430851   # C_2
 7 0.105000 3.430851   # C_R
 8 0.060000 3.118146   # O_1
 9 0.060000 3.118146   # O_3

Bond Coeffs

 1 572.510195 1.366311   # C_R O_3
 2 559.995206 0.990254   # H_ O_3

Angle Coeffs

 1 cosine/periodic  271.563462  -1  3   # C_R C_R O_3
 2 fourier  181.607508  0.300235  0.267331  0.266745   # C_R O_3 H_

Dihedral Coeffs

 1 harmonic 2.500000 1 2   # C_R C_R O_3 H_ M=2
 2 harmonic 3.368555 -1 2   # C_2 C_R C_R O_3 M=4
 3 harmonic 3.368555 -1 2   # C_R C_R C_R O_3 M=4
 4 harmonic 3.368555 -1 2   # H_ C_R C_R O_3 M=4

Atoms

 1 1 1   0.000000   2.481771   0.000000   0.000000   # Zr3+4
 2 1 1   0.000000   2.481771  10.350200  10.350200   # Zr3+4
 3 1 1   0.000000  12.831971   0.000000  10.350200   # Zr3+4
 4 1 1   0.000000  12.831971  10.350200   0.000000   # Zr3+4
 5 1 1   0.000000  18.218629   0.000000   0.000000   # Zr3+4
 6 1 1   0.000000  18.218629  10.350200  10.350200   # Zr3+4
 7 1 1   0.000000   7.868429   0.000000  10.350200   # Zr3+4
 8 1 1   0.000000   7.868429  10.350200   0.000000   # Zr3+4
 9 1 1   0.000000   0.000000   2.481771   0.000000   # Zr3+4
 10 1 1   0.000000   0.000000  12.831971  10.350200   # Zr3+4
 11 1 1   0.000000  10.350200   2.481771  10.350200   # Zr3+4
 12 1 1   0.000000  10.350200  12.831971   0.000000   # Zr3+4
 13 1 1   0.000000   0.000000  18.218629   0.000000   # Zr3+4
 14 1 1   0.000000   0.000000   7.868429  10.350200   # Zr3+4
 15 1 1   0.000000  10.350200  18.218629  10.350200   # Zr3+4
 16 1 1   0.000000  10.350200   7.868429   0.000000   # Zr3+4
 17 1 1   0.000000   0.000000   0.000000   2.481771   # Zr3+4
 18 1 1   0.000000   0.000000  10.350200  12.831971   # Zr3+4
 19 1 1   0.000000  10.350200   0.000000  12.831971   # Zr3+4
 20 1 1   0.000000  10.350200  10.350200   2.481771   # Zr3+4
 21 1 1   0.000000   0.000000   0.000000  18.218629   # Zr3+4
 22 1 1   0.000000   0.000000  10.350200   7.868429   # Zr3+4
 23 1 1   0.000000  10.350200   0.000000   7.868429   # Zr3+4
 24 1 1   0.000000  10.350200  10.350200  18.218629   # Zr3+4
 25 1 2   0.000000   1.161292   9.188908   9.188908   # O_3
 26 1 2   0.000000  11.511492  19.539108   9.188908   # O_3
 27 1 2   0.000000  11.511492   9.188908  19.539108   # O_3
 28 1 2   0.000000   9.188908   1.161292   9.188908   # O_3
 29 1 2   0.000000   9.188908  11.511492  19.539108   # O_3
 30 1 2   0.000000  19.539108  19.539108   1.161292   # O_3
 31 1 2   0.000000  19.539108   9.188908  11.511492   # O_3
 32 1 2   0.000000   1.161292   1.161292   1.161292   # O_3
 33 1 2   0.000000  11.511492  11.511492   1.161292   # O_3
 34 1 2   0.000000  19.539108   1.161292   1.161292   # O_3
 35 1 2   0.000000  19.539108  11.511492  11.511492   # O_3
 36 1 2   0.000000   9.188908   1.161292  11.511492   # O_3
 37 1 2   0.000000   9.188908  11.511492   1.161292   # O_3
 38 1 2   0.000000   1.161292  19.539108   1.161292   # O_3
 39 1 2   0.000000   1.161292   9.188908  11.511492   # O_3
 40 1 2   0.000000  11.511492  19.539108  11.511492   # O_3
 41 1 2   0.000000  11.511492   9.188908   1.161292   # O_3
 42 1 2   0.000000  19.539108  19.539108  19.539108   # O_3
 43 1 2   0.000000  19.539108   9.188908   9.188908   # O_3
 44 1 2   0.000000   9.188908  19.539108   9.188908   # O_3
 45 1 2   0.000000   9.188908   9.188908  19.539108   # O_3
 46 1 2   0.000000   1.161292   1.161292  19.539108   # O_3
 47 1 2   0.000000   1.161292  11.511492   9.188908   # O_3
 48 1 2   0.000000  11.511492   1.161292   9.188908   # O_3
 49 1 6   0.000000   3.179581   0.000000  17.520819   # C_2
 50 1 8   0.000000   3.528595   0.000000  18.727815   # O_1
 51 1 8   0.000000   1.972577  20.700400  17.171832   # O_1
 52 1 7   0.000000   4.243569   0.000000  16.456806   # C_R
 53 1 7   0.000000   3.816555  20.700400  15.162811   # C_R
 54 1 5   0.000000   2.700552  20.700400  14.930824   # H_
 55 2 9   0.000000   4.361058   0.000004  12.885524   # O_3
 56 1 7   0.000000   4.812543  20.700400  14.167800   # C_R
 57 1 7   0.000000   6.106548   0.000000  14.593785   # C_R
 58 1 7   0.000000   6.532563   0.000000  15.887781   # C_R
 59 1 7   0.000000   5.537574   0.000000  16.883792   # C_R
 60 2 9   0.000000   5.944250   0.000000  18.185023   # O_3
 61 1 5   0.000000   7.648566   0.000000  16.119768   # H_
 62 1 8   0.000000   8.377540   0.000000  13.878760   # O_1
 63 1 6   0.000000   7.170536   0.000000  13.529773   # C_2
 64 1 8   0.000000   6.821523  20.700400  12.322777   # O_1
 65 2 5   0.000000   3.396258   0.000124  12.895659   # H_
 66 2 5   0.000000   5.100780   0.000000  18.711945   # H_
 67 1 6   0.000000   3.179581  10.350200   7.170619   # C_2
 68 1 8   0.000000   3.528595  10.350200   8.377615   # O_1
 69 1 8   0.000000   1.972577  10.350200   6.821632   # O_1
 70 1 7   0.000000   4.243569  10.350200   6.106606   # C_R
 71 1 7   0.000000   3.816555  10.350200   4.812611   # C_R
 72 1 5   0.000000   2.700552  10.350200   4.580624   # H_
 73 2 9   0.000000   4.361058  10.350204   2.535324   # O_3
 74 1 7   0.000000   4.812543  10.350200   3.817600   # C_R
 75 1 7   0.000000   6.106548  10.350200   4.243585   # C_R
 76 1 7   0.000000   6.532563  10.350200   5.537581   # C_R
 77 1 7   0.000000   5.537574  10.350200   6.533592   # C_R
 78 2 9   0.000000   5.944250  10.350200   7.834823   # O_3
 79 1 5   0.000000   7.648566  10.350200   5.769568   # H_
 80 1 8   0.000000   8.377540  10.350200   3.528560   # O_1
 81 1 6   0.000000   7.170536  10.350200   3.179573   # C_2
 82 1 8   0.000000   6.821523  10.350200   1.972577   # O_1
 83 2 5   0.000000   3.396258  10.350324   2.545459   # H_
 84 2 5   0.000000   5.100780  10.350200   8.361745   # H_
 85 1 6   0.000000  13.529781   0.000000   7.170619   # C_2
 86 1 8   0.000000  13.878795   0.000000   8.377615   # O_1
 87 1 8   0.000000  12.322777  20.700400   6.821632   # O_1
 88 1 7   0.000000  14.593769   0.000000   6.106606   # C_R
 89 1 7   0.000000  14.166755  20.700400   4.812611   # C_R
 90 1 5   0.000000  13.050752  20.700400   4.580624   # H_
 91 2 9   0.000000  14.711258   0.000004   2.535324   # O_3
 92 1 7   0.000000  15.162743  20.700400   3.817600   # C_R
 93 1 7   0.000000  16.456748   0.000000   4.243585   # C_R
 94 1 7   0.000000  16.882763   0.000000   5.537581   # C_R
 95 1 7   0.000000  15.887774   0.000000   6.533592   # C_R
 96 2 9   0.000000  16.294450   0.000000   7.834823   # O_3
 97 1 5   0.000000  17.998766   0.000000   5.769568   # H_
 98 1 8   0.000000  18.727740   0.000000   3.528560   # O_1
 99 1 6   0.000000  17.520736   0.000000   3.179573   # C_2
 100 1 8   0.000000  17.171723  20.700400   1.972577   # O_1
 101 2 5   0.000000  13.746458   0.000124   2.545459   # H_
 102 2 5   0.000000  15.450980   0.000000   8.361745   # H_
 103 1 6   0.000000  13.529781  10.350200  17.520819   # C_2
 104 1 8   0.000000  13.878795  10.350200  18.727815   # O_1
 105 1 8   0.000000  12.322777  10.350200  17.171832   # O_1
 106 1 7   0.000000  14.593769  10.350200  16.456806   # C_R
 107 1 7   0.000000  14.166755  10.350200  15.162811   # C_R
 108 1 5   0.000000  13.050752  10.350200  14.930824   # H_
 109 2 9   0.000000  14.711258  10.350204  12.885524   # O_3
 110 1 7   0.000000  15.162743  10.350200  14.167800   # C_R
 111 1 7   0.000000  16.456748  10.350200  14.593785   # C_R
 112 1 7   0.000000  16.882763  10.350200  15.887781   # C_R
 113 1 7   0.000000  15.887774  10.350200  16.883792   # C_R
 114 2 9   0.000000  16.294450  10.350200  18.185023   # O_3
 115 1 5   0.000000  17.998766  10.350200  16.119768   # H_
 116 1 8   0.000000  18.727740  10.350200  13.878760   # O_1
 117 1 6   0.000000  17.520736  10.350200  13.529773   # C_2
 118 1 8   0.000000  17.171723  10.350200  12.322777   # O_1
 119 2 5   0.000000  13.746458  10.350324  12.895659   # H_
 120 2 5   0.000000  15.450980  10.350200  18.711945   # H_
 121 1 6   0.000000  17.520819   0.000000  17.520819   # C_2
 122 1 8   0.000000  17.171805   0.000000  18.727815   # O_1
 123 1 8   0.000000  18.727823   0.000000  17.171832   # O_1
 124 1 7   0.000000  16.456831   0.000000  16.456806   # C_R
 125 1 7   0.000000  16.883845   0.000000  15.162811   # C_R
 126 1 5   0.000000  17.999848   0.000000  14.930824   # H_
 127 2 9   0.000000  16.339342  20.700396  12.885524   # O_3
 128 1 7   0.000000  15.887857   0.000000  14.167800   # C_R
 129 1 7   0.000000  14.593852   0.000000  14.593785   # C_R
 130 1 7   0.000000  14.167837   0.000000  15.887781   # C_R
 131 1 7   0.000000  15.162826   0.000000  16.883792   # C_R
 132 2 9   0.000000  14.756150   0.000000  18.185023   # O_3
 133 1 5   0.000000  13.051834   0.000000  16.119768   # H_
 134 1 8   0.000000  12.322860   0.000000  13.878760   # O_1
 135 1 6   0.000000  13.529864   0.000000  13.529773   # C_2
 136 1 8   0.000000  13.878877   0.000000  12.322777   # O_1
 137 2 5   0.000000  17.304142  20.700276  12.895659   # H_
 138 2 5   0.000000  15.599620   0.000000  18.711945   # H_
 139 1 6   0.000000  17.520819  10.350200   7.170619   # C_2
 140 1 8   0.000000  17.171805  10.350200   8.377615   # O_1
 141 1 8   0.000000  18.727823  10.350200   6.821632   # O_1
 142 1 7   0.000000  16.456831  10.350200   6.106606   # C_R
 143 1 7   0.000000  16.883845  10.350200   4.812611   # C_R
 144 1 5   0.000000  17.999848  10.350200   4.580624   # H_
 145 2 9   0.000000  16.339342  10.350196   2.535324   # O_3
 146 1 7   0.000000  15.887857  10.350200   3.817600   # C_R
 147 1 7   0.000000  14.593852  10.350200   4.243585   # C_R
 148 1 7   0.000000  14.167837  10.350200   5.537581   # C_R
 149 1 7   0.000000  15.162826  10.350200   6.533592   # C_R
 150 2 9   0.000000  14.756150  10.350200   7.834823   # O_3
 151 1 5   0.000000  13.051834  10.350200   5.769568   # H_
 152 1 8   0.000000  12.322860  10.350200   3.528560   # O_1
 153 1 6   0.000000  13.529864  10.350200   3.179573   # C_2
 154 1 8   0.000000  13.878877  10.350200   1.972577   # O_1
 155 2 5   0.000000  17.304142  10.350076   2.545459   # H_
 156 2 5   0.000000  15.599620  10.350200   8.361745   # H_
 157 1 6   0.000000   7.170619   0.000000   7.170619   # C_2
 158 1 8   0.000000   6.821605   0.000000   8.377615   # O_1
 159 1 8   0.000000   8.377623   0.000000   6.821632   # O_1
 160 1 7   0.000000   6.106631   0.000000   6.106606   # C_R
 161 1 7   0.000000   6.533645   0.000000   4.812611   # C_R
 162 1 5   0.000000   7.649648   0.000000   4.580624   # H_
 163 2 9   0.000000   5.989142  20.700396   2.535324   # O_3
 164 1 7   0.000000   5.537657   0.000000   3.817600   # C_R
 165 1 7   0.000000   4.243652   0.000000   4.243585   # C_R
 166 1 7   0.000000   3.817637   0.000000   5.537581   # C_R
 167 1 7   0.000000   4.812626   0.000000   6.533592   # C_R
 168 2 9   0.000000   4.405950   0.000000   7.834823   # O_3
 169 1 5   0.000000   2.701634   0.000000   5.769568   # H_
 170 1 8   0.000000   1.972660   0.000000   3.528560   # O_1
 171 1 6   0.000000   3.179664   0.000000   3.179573   # C_2
 172 1 8   0.000000   3.528677   0.000000   1.972577   # O_1
 173 2 5   0.000000   6.953942  20.700276   2.545459   # H_
 174 2 5   0.000000   5.249420   0.000000   8.361745   # H_
 175 1 6   0.000000   7.170619  10.350200  17.520819   # C_2
 176 1 8   0.000000   6.821605  10.350200  18.727815   # O_1
 177 1 8   0.000000   8.377623  10.350200  17.171832   # O_1
 178 1 7   0.000000   6.106631  10.350200  16.456806   # C_R
 179 1 7   0.000000   6.533645  10.350200  15.162811   # C_R
 180 1 5   0.000000   7.649648  10.350200  14.930824   # H_
 181 2 9   0.000000   5.989142  10.350196  12.885524   # O_3
 182 1 7   0.000000   5.537657  10.350200  14.167800   # C_R
 183 1 7   0.000000   4.243652  10.350200  14.593785   # C_R
 184 1 7   0.000000   3.817637  10.350200  15.887781   # C_R
 185 1 7   0.000000   4.812626  10.350200  16.883792   # C_R
 186 2 9   0.000000   4.405950  10.350200  18.185023   # O_3
 187 1 5   0.000000   2.701634  10.350200  16.119768   # H_
 188 1 8   0.000000   1.972660  10.350200  13.878760   # O_1
 189 1 6   0.000000   3.179664  10.350200  13.529773   # C_2
 190 1 8   0.000000   3.528677  10.350200  12.322777   # O_1
 191 2 5   0.000000   6.953942  10.350076  12.895659   # H_
 192 2 5   0.000000   5.249420  10.350200  18.711945   # H_
 193 1 6   0.000000  17.520819   3.179581   0.000000   # C_2
 194 1 8   0.000000  18.727815   3.528595  20.700400   # O_1
 195 1 8   0.000000  17.171832   1.972577   0.000000   # O_1
 196 1 7   0.000000  16.456806   4.243569  20.700400   # C_R
 197 1 7   0.000000  15.162811   3.816555   0.000000   # C_R
 198 1 5   0.000000  14.930824   2.700552   0.000000   # H_
 199 2 9   0.000000  12.885524   4.361058   0.000004   # O_3
 200 1 7   0.000000  14.167800   4.812543   0.000000   # C_R
 201 1 7   0.000000  14.593785   6.106548  20.700400   # C_R
 202 1 7   0.000000  15.887781   6.532563  20.700400   # C_R
 203 1 7   0.000000  16.883792   5.537574  20.700400   # C_R
 204 2 9   0.000000  18.185023   5.944250  20.700400   # O_3
 205 1 5   0.000000  16.119768   7.648566  20.700400   # H_
 206 1 8   0.000000  13.878760   8.377540  20.700400   # O_1
 207 1 6   0.000000  13.529773   7.170536  20.700400   # C_2
 208 1 8   0.000000  12.322777   6.821523   0.000000   # O_1
 209 2 5   0.000000  12.895659   3.396258   0.000124   # H_
 210 2 5   0.000000  18.711945   5.100780  20.700400   # H_
 211 1 6   0.000000  17.520819  13.529781  10.350200   # C_2
 212 1 8   0.000000  18.727815  13.878795  10.350200   # O_1
 213 1 8   0.000000  17.171832  12.322777  10.350200   # O_1
 214 1 7   0.000000  16.456806  14.593769  10.350200   # C_R
 215 1 7   0.000000  15.162811  14.166755  10.350200   # C_R
 216 1 5   0.000000  14.930824  13.050752  10.350200   # H_
 217 2 9   0.000000  12.885524  14.711258  10.350204   # O_3
 218 1 7   0.000000  14.167800  15.162743  10.350200   # C_R
 219 1 7   0.000000  14.593785  16.456748  10.350200   # C_R
 220 1 7   0.000000  15.887781  16.882763  10.350200   # C_R
 221 1 7   0.000000  16.883792  15.887774  10.350200   # C_R
 222 2 9   0.000000  18.185023  16.294450  10.350200   # O_3
 223 1 5   0.000000  16.119768  17.998766  10.350200   # H_
 224 1 8   0.000000  13.878760  18.727740  10.350200   # O_1
 225 1 6   0.000000  13.529773  17.520736  10.350200   # C_2
 226 1 8   0.000000  12.322777  17.171723  10.350200   # O_1
 227 2 5   0.000000  12.895659  13.746458  10.350324   # H_
 228 2 5   0.000000  18.711945  15.450980  10.350200   # H_
 229 1 6   0.000000   7.170619   3.179581  10.350200   # C_2
 230 1 8   0.000000   8.377615   3.528595  10.350200   # O_1
 231 1 8   0.000000   6.821632   1.972577  10.350200   # O_1
 232 1 7   0.000000   6.106606   4.243569  10.350200   # C_R
 233 1 7   0.000000   4.812611   3.816555  10.350200   # C_R
 234 1 5   0.000000   4.580624   2.700552  10.350200   # H_
 235 2 9   0.000000   2.535324   4.361058  10.350204   # O_3
 236 1 7   0.000000   3.817600   4.812543  10.350200   # C_R
 237 1 7   0.000000   4.243585   6.106548  10.350200   # C_R
 238 1 7   0.000000   5.537581   6.532563  10.350200   # C_R
 239 1 7   0.000000   6.533592   5.537574  10.350200   # C_R
 240 2 9   0.000000   7.834823   5.944250  10.350200   # O_3
 241 1 5   0.000000   5.769568   7.648566  10.350200   # H_
 242 1 8   0.000000   3.528560   8.377540  10.350200   # O_1
 243 1 6   0.000000   3.179573   7.170536  10.350200   # C_2
 244 1 8   0.000000   1.972577   6.821523  10.350200   # O_1
 245 2 5   0.000000   2.545459   3.396258  10.350324   # H_
 246 2 5   0.000000   8.361745   5.100780  10.350200   # H_
 247 1 6   0.000000   7.170619  13.529781   0.000000   # C_2
 248 1 8   0.000000   8.377615  13.878795   0.000000   # O_1
 249 1 8   0.000000   6.821632  12.322777  20.700400   # O_1
 250 1 7   0.000000   6.106606  14.593769   0.000000   # C_R
 251 1 7   0.000000   4.812611  14.166755   0.000000   # C_R
 252 1 5   0.000000   4.580624  13.050752  20.700400   # H_
 253 2 9   0.000000   2.535324  14.711258   0.000004   # O_3
 254 1 7   0.000000   3.817600  15.162743   0.000000   # C_R
 255 1 7   0.000000   4.243585  16.456748   0.000000   # C_R
 256 1 7   0.000000   5.537581  16.882763   0.000000   # C_R
 257 1 7   0.000000   6.533592  15.887774   0.000000   # C_R
 258 2 9   0.000000   7.834823  16.294450   0.000000   # O_3
 259 1 5   0.000000   5.769568  17.998766   0.000000   # H_
 260 1 8   0.000000   3.528560  18.727740   0.000000   # O_1
 261 1 6   0.000000   3.179573  17.520736   0.000000   # C_2
 262 1 8   0.000000   1.972577  17.171723   0.000000   # O_1
 263 2 5   0.000000   2.545459  13.746458   0.000124   # H_
 264 2 5   0.000000   8.361745  15.450980   0.000000   # H_
 265 1 6   0.000000  17.520819  17.520819   0.000000   # C_2
 266 1 8   0.000000  18.727815  17.171805  20.700400   # O_1
 267 1 8   0.000000  17.171832  18.727823   0.000000   # O_1
 268 1 7   0.000000  16.456806  16.456831   0.000000   # C_R
 269 1 7   0.000000  15.162811  16.883845   0.000000   # C_R
 270 1 5   0.000000  14.930824  17.999848   0.000000   # H_
 271 2 9   0.000000  12.885524  16.339342  20.700396   # O_3
 272 1 7   0.000000  14.167800  15.887857   0.000000   # C_R
 273 1 7   0.000000  14.593785  14.593852   0.000000   # C_R
 274 1 7   0.000000  15.887781  14.167837  20.700400   # C_R
 275 1 7   0.000000  16.883792  15.162826  20.700400   # C_R
 276 2 9   0.000000  18.185023  14.756150  20.700400   # O_3
 277 1 5   0.000000  16.119768  13.051834  20.700400   # H_
 278 1 8   0.000000  13.878760  12.322860  20.700400   # O_1
 279 1 6   0.000000  13.529773  13.529864   0.000000   # C_2
 280 1 8   0.000000  12.322777  13.878877   0.000000   # O_1
 281 2 5   0.000000  12.895659  17.304142  20.700276   # H_
 282 2 5   0.000000  18.711945  15.599620  20.700400   # H_
 283 1 6   0.000000  17.520819   7.170619  10.350200   # C_2
 284 1 8   0.000000  18.727815   6.821605  10.350200   # O_1
 285 1 8   0.000000  17.171832   8.377623  10.350200   # O_1
 286 1 7   0.000000  16.456806   6.106631  10.350200   # C_R
 287 1 7   0.000000  15.162811   6.533645  10.350200   # C_R
 288 1 5   0.000000  14.930824   7.649648  10.350200   # H_
 289 2 9   0.000000  12.885524   5.989142  10.350196   # O_3
 290 1 7   0.000000  14.167800   5.537657  10.350200   # C_R
 291 1 7   0.000000  14.593785   4.243652  10.350200   # C_R
 292 1 7   0.000000  15.887781   3.817637  10.350200   # C_R
 293 1 7   0.000000  16.883792   4.812626  10.350200   # C_R
 294 2 9   0.000000  18.185023   4.405950  10.350200   # O_3
 295 1 5   0.000000  16.119768   2.701634  10.350200   # H_
 296 1 8   0.000000  13.878760   1.972660  10.350200   # O_1
 297 1 6   0.000000  13.529773   3.179664  10.350200   # C_2
 298 1 8   0.000000  12.322777   3.528677  10.350200   # O_1
 299 2 5   0.000000  12.895659   6.953942  10.350076   # H_
 300 2 5   0.000000  18.711945   5.249420  10.350200   # H_
 301 1 6   0.000000   7.170619  17.520819  10.350200   # C_2
 302 1 8   0.000000   8.377615  17.171805  10.350200   # O_1
 303 1 8   0.000000   6.821632  18.727823  10.350200   # O_1
 304 1 7   0.000000   6.106606  16.456831  10.350200   # C_R
 305 1 7   0.000000   4.812611  16.883845  10.350200   # C_R
 306 1 5   0.000000   4.580624  17.999848  10.350200   # H_
 307 2 9   0.000000   2.535324  16.339342  10.350196   # O_3
 308 1 7   0.000000   3.817600  15.887857  10.350200   # C_R
 309 1 7   0.000000   4.243585  14.593852  10.350200   # C_R
 310 1 7   0.000000   5.537581  14.167837  10.350200   # C_R
 311 1 7   0.000000   6.533592  15.162826  10.350200   # C_R
 312 2 9   0.000000   7.834823  14.756150  10.350200   # O_3
 313 1 5   0.000000   5.769568  13.051834  10.350200   # H_
 314 1 8   0.000000   3.528560  12.322860  10.350200   # O_1
 315 1 6   0.000000   3.179573  13.529864  10.350200   # C_2
 316 1 8   0.000000   1.972577  13.878877  10.350200   # O_1
 317 2 5   0.000000   2.545459  17.304142  10.350076   # H_
 318 2 5   0.000000   8.361745  15.599620  10.350200   # H_
 319 1 6   0.000000   7.170619   7.170619   0.000000   # C_2
 320 1 8   0.000000   8.377615   6.821605  20.700400   # O_1
 321 1 8   0.000000   6.821632   8.377623   0.000000   # O_1
 322 1 7   0.000000   6.106606   6.106631   0.000000   # C_R
 323 1 7   0.000000   4.812611   6.533645   0.000000   # C_R
 324 1 5   0.000000   4.580624   7.649648   0.000000   # H_
 325 2 9   0.000000   2.535324   5.989142  20.700396   # O_3
 326 1 7   0.000000   3.817600   5.537657   0.000000   # C_R
 327 1 7   0.000000   4.243585   4.243652   0.000000   # C_R
 328 1 7   0.000000   5.537581   3.817637   0.000000   # C_R
 329 1 7   0.000000   6.533592   4.812626  20.700400   # C_R
 330 2 9   0.000000   7.834823   4.405950  20.700400   # O_3
 331 1 5   0.000000   5.769568   2.701634  20.700400   # H_
 332 1 8   0.000000   3.528560   1.972660   0.000000   # O_1
 333 1 6   0.000000   3.179573   3.179664   0.000000   # C_2
 334 1 8   0.000000   1.972577   3.528677   0.000000   # O_1
 335 2 5   0.000000   2.545459   6.953942  20.700276   # H_
 336 2 5   0.000000   8.361745   5.249420  20.700400   # H_
 337 1 6   0.000000   0.000000  17.520819   3.179581   # C_2
 338 1 8   0.000000   0.000000  18.727815   3.528595   # O_1
 339 1 8   0.000000  20.700400  17.171832   1.972577   # O_1
 340 1 7   0.000000   0.000000  16.456806   4.243569   # C_R
 341 1 7   0.000000   0.000000  15.162811   3.816555   # C_R
 342 1 5   0.000000  20.700400  14.930824   2.700552   # H_
 343 2 9   0.000000   0.000004  12.885524   4.361058   # O_3
 344 1 7   0.000000   0.000000  14.167800   4.812543   # C_R
 345 1 7   0.000000   0.000000  14.593785   6.106548   # C_R
 346 1 7   0.000000   0.000000  15.887781   6.532563   # C_R
 347 1 7   0.000000   0.000000  16.883792   5.537574   # C_R
 348 2 9   0.000000   0.000000  18.185023   5.944250   # O_3
 349 1 5   0.000000   0.000000  16.119768   7.648566   # H_
 350 1 8   0.000000   0.000000  13.878760   8.377540   # O_1
 351 1 6   0.000000   0.000000  13.529773   7.170536   # C_2
 352 1 8   0.000000   0.000000  12.322777   6.821523   # O_1
 353 2 5   0.000000   0.000124  12.895659   3.396258   # H_
 354 2 5   0.000000   0.000000  18.711945   5.100780   # H_
 355 1 6   0.000000   0.000000   7.170619  13.529781   # C_2
 356 1 8   0.000000   0.000000   8.377615  13.878795   # O_1
 357 1 8   0.000000  20.700400   6.821632  12.322777   # O_1
 358 1 7   0.000000   0.000000   6.106606  14.593769   # C_R
 359 1 7   0.000000   0.000000   4.812611  14.166755   # C_R
 360 1 5   0.000000  20.700400   4.580624  13.050752   # H_
 361 2 9   0.000000   0.000004   2.535324  14.711258   # O_3
 362 1 7   0.000000   0.000000   3.817600  15.162743   # C_R
 363 1 7   0.000000   0.000000   4.243585  16.456748   # C_R
 364 1 7   0.000000   0.000000   5.537581  16.882763   # C_R
 365 1 7   0.000000   0.000000   6.533592  15.887774   # C_R
 366 2 9   0.000000   0.000000   7.834823  16.294450   # O_3
 367 1 5   0.000000   0.000000   5.769568  17.998766   # H_
 368 1 8   0.000000   0.000000   3.528560  18.727740   # O_1
 369 1 6   0.000000   0.000000   3.179573  17.520736   # C_2
 370 1 8   0.000000   0.000000   1.972577  17.171723   # O_1
 371 2 5   0.000000   0.000124   2.545459  13.746458   # H_
 372 2 5   0.000000   0.000000   8.361745  15.450980   # H_
 373 1 6   0.000000  10.350200  17.520819  13.529781   # C_2
 374 1 8   0.000000  10.350200  18.727815  13.878795   # O_1
 375 1 8   0.000000  10.350200  17.171832  12.322777   # O_1
 376 1 7   0.000000  10.350200  16.456806  14.593769   # C_R
 377 1 7   0.000000  10.350200  15.162811  14.166755   # C_R
 378 1 5   0.000000  10.350200  14.930824  13.050752   # H_
 379 2 9   0.000000  10.350204  12.885524  14.711258   # O_3
 380 1 7   0.000000  10.350200  14.167800  15.162743   # C_R
 381 1 7   0.000000  10.350200  14.593785  16.456748   # C_R
 382 1 7   0.000000  10.350200  15.887781  16.882763   # C_R
 383 1 7   0.000000  10.350200  16.883792  15.887774   # C_R
 384 2 9   0.000000  10.350200  18.185023  16.294450   # O_3
 385 1 5   0.000000  10.350200  16.119768  17.998766   # H_
 386 1 8   0.000000  10.350200  13.878760  18.727740   # O_1
 387 1 6   0.000000  10.350200  13.529773  17.520736   # C_2
 388 1 8   0.000000  10.350200  12.322777  17.171723   # O_1
 389 2 5   0.000000  10.350324  12.895659  13.746458   # H_
 390 2 5   0.000000  10.350200  18.711945  15.450980   # H_
 391 1 6   0.000000  10.350200   7.170619   3.179581   # C_2
 392 1 8   0.000000  10.350200   8.377615   3.528595   # O_1
 393 1 8   0.000000  10.350200   6.821632   1.972577   # O_1
 394 1 7   0.000000  10.350200   6.106606   4.243569   # C_R
 395 1 7   0.000000  10.350200   4.812611   3.816555   # C_R
 396 1 5   0.000000  10.350200   4.580624   2.700552   # H_
 397 2 9   0.000000  10.350204   2.535324   4.361058   # O_3
 398 1 7   0.000000  10.350200   3.817600   4.812543   # C_R
 399 1 7   0.000000  10.350200   4.243585   6.106548   # C_R
 400 1 7   0.000000  10.350200   5.537581   6.532563   # C_R
 401 1 7   0.000000  10.350200   6.533592   5.537574   # C_R
 402 2 9   0.000000  10.350200   7.834823   5.944250   # O_3
 403 1 5   0.000000  10.350200   5.769568   7.648566   # H_
 404 1 8   0.000000  10.350200   3.528560   8.377540   # O_1
 405 1 6   0.000000  10.350200   3.179573   7.170536   # C_2
 406 1 8   0.000000  10.350200   1.972577   6.821523   # O_1
 407 2 5   0.000000  10.350324   2.545459   3.396258   # H_
 408 2 5   0.000000  10.350200   8.361745   5.100780   # H_
 409 1 6   0.000000   0.000000  17.520819  17.520819   # C_2
 410 1 8   0.000000  20.700400  18.727815  17.171805   # O_1
 411 1 8   0.000000   0.000000  17.171832  18.727823   # O_1
 412 1 7   0.000000  20.700400  16.456806  16.456831   # C_R
 413 1 7   0.000000   0.000000  15.162811  16.883845   # C_R
 414 1 5   0.000000   0.000000  14.930824  17.999848   # H_
 415 2 9   0.000000  20.700396  12.885524  16.339342   # O_3
 416 1 7   0.000000   0.000000  14.167800  15.887857   # C_R
 417 1 7   0.000000   0.000000  14.593785  14.593852   # C_R
 418 1 7   0.000000  20.700400  15.887781  14.167837   # C_R
 419 1 7   0.000000   0.000000  16.883792  15.162826   # C_R
 420 2 9   0.000000   0.000000  18.185023  14.756150   # O_3
 421 1 5   0.000000  20.700400  16.119768  13.051834   # H_
 422 1 8   0.000000   0.000000  13.878760  12.322860   # O_1
 423 1 6   0.000000   0.000000  13.529773  13.529864   # C_2
 424 1 8   0.000000   0.000000  12.322777  13.878877   # O_1
 425 2 5   0.000000  20.700276  12.895659  17.304142   # H_
 426 2 5   0.000000  20.700400  18.711945  15.599620   # H_
 427 1 6   0.000000   0.000000   7.170619   7.170619   # C_2
 428 1 8   0.000000   0.000000   8.377615   6.821605   # O_1
 429 1 8   0.000000   0.000000   6.821632   8.377623   # O_1
 430 1 7   0.000000  20.700400   6.106606   6.106631   # C_R
 431 1 7   0.000000   0.000000   4.812611   6.533645   # C_R
 432 1 5   0.000000  20.700400   4.580624   7.649648   # H_
 433 2 9   0.000000  20.700396   2.535324   5.989142   # O_3
 434 1 7   0.000000  20.700400   3.817600   5.537657   # C_R
 435 1 7   0.000000   0.000000   4.243585   4.243652   # C_R
 436 1 7   0.000000  20.700400   5.537581   3.817637   # C_R
 437 1 7   0.000000   0.000000   6.533592   4.812626   # C_R
 438 2 9   0.000000   0.000000   7.834823   4.405950   # O_3
 439 1 5   0.000000   0.000000   5.769568   2.701634   # H_
 440 1 8   0.000000   0.000000   3.528560   1.972660   # O_1
 441 1 6   0.000000   0.000000   3.179573   3.179664   # C_2
 442 1 8   0.000000   0.000000   1.972577   3.528677   # O_1
 443 2 5   0.000000  20.700276   2.545459   6.953942   # H_
 444 2 5   0.000000  20.700400   8.361745   5.249420   # H_
 445 1 6   0.000000  10.350200  17.520819   7.170619   # C_2
 446 1 8   0.000000  10.350200  18.727815   6.821605   # O_1
 447 1 8   0.000000  10.350200  17.171832   8.377623   # O_1
 448 1 7   0.000000  10.350200  16.456806   6.106631   # C_R
 449 1 7   0.000000  10.350200  15.162811   6.533645   # C_R
 450 1 5   0.000000  10.350200  14.930824   7.649648   # H_
 451 2 9   0.000000  10.350196  12.885524   5.989142   # O_3
 452 1 7   0.000000  10.350200  14.167800   5.537657   # C_R
 453 1 7   0.000000  10.350200  14.593785   4.243652   # C_R
 454 1 7   0.000000  10.350200  15.887781   3.817637   # C_R
 455 1 7   0.000000  10.350200  16.883792   4.812626   # C_R
 456 2 9   0.000000  10.350200  18.185023   4.405950   # O_3
 457 1 5   0.000000  10.350200  16.119768   2.701634   # H_
 458 1 8   0.000000  10.350200  13.878760   1.972660   # O_1
 459 1 6   0.000000  10.350200  13.529773   3.179664   # C_2
 460 1 8   0.000000  10.350200  12.322777   3.528677   # O_1
 461 2 5   0.000000  10.350076  12.895659   6.953942   # H_
 462 2 5   0.000000  10.350200  18.711945   5.249420   # H_
 463 1 6   0.000000  10.350200   7.170619  17.520819   # C_2
 464 1 8   0.000000  10.350200   8.377615  17.171805   # O_1
 465 1 8   0.000000  10.350200   6.821632  18.727823   # O_1
 466 1 7   0.000000  10.350200   6.106606  16.456831   # C_R
 467 1 7   0.000000  10.350200   4.812611  16.883845   # C_R
 468 1 5   0.000000  10.350200   4.580624  17.999848   # H_
 469 2 9   0.000000  10.350196   2.535324  16.339342   # O_3
 470 1 7   0.000000  10.350200   3.817600  15.887857   # C_R
 471 1 7   0.000000  10.350200   4.243585  14.593852   # C_R
 472 1 7   0.000000  10.350200   5.537581  14.167837   # C_R
 473 1 7   0.000000  10.350200   6.533592  15.162826   # C_R
 474 2 9   0.000000  10.350200   7.834823  14.756150   # O_3
 475 1 5   0.000000  10.350200   5.769568  13.051834   # H_