 (written by mofun)

840 atoms
432 bonds
840 angles
1200 dihedrals
0 impropers

10 atom types
5 bond types
9 angle types
14 dihedral types
   0.000000  20.700400 xlo xhi
   0.000000  20.700400 ylo yhi
   0.000000  20.700400 zlo zhi

Masses

 1 91.2240   # Zr3+4
 2 15.9994   # O_3
 3 12.0107   # C_3
 4 1.0079   # H_
 5 1.0079   # H_
 6 12.0107   # C_2
 7 12.0107   # C_3
 8 12.0107   # C_R
 9 14.0067   # N_3
 10 15.9994   # O_1

Pair Coeffs

 1   0.069000   2.783168 # Zr3+4
 2   0.060000   3.118146 # O_3
 3   0.105000   3.430851 # C_3
 4   0.044000   2.571134 # H_
 5 0.044000 2.571134   # H_
 6 0.105000 3.430851   # C_2
 7 0.105000 3.430851   # C_3
 8 0.105000 3.430851   # C_R
 9 0.069000 3.260689   # N_3
 10 0.060000 3.118146   # O_1

Bond Coeffs

 1 560.312976 1.423192   # C_R N_3
 2 527.945261 1.044419   # H_ N_3
 3 528.634538 1.451071   # C_3 N_3
 4 331.069389 1.109401   # C_3 H_
 5 349.795899 1.514000   # C_3 C_3

Angle Coeffs

 1 cosine/periodic  282.369526  -1  3   # C_R C_R N_3
 2 fourier  150.574599  0.317506  0.313225  0.272502   # C_R N_3 H_
 3 fourier  268.482172  0.317506  0.313225  0.272502   # C_3 N_3 C_R
 4 fourier  144.695053  0.317506  0.313225  0.272502   # C_3 N_3 H_
 5 fourier  169.780468  0.343737  0.374972  0.281246   # H_ C_3 N_3
 6 fourier  303.297032  0.343737  0.374972  0.281246   # C_3 C_3 N_3
 7 fourier  75.498766  0.343737  0.374972  0.281246   # H_ C_3 H_
 8 fourier  117.318683  0.343737  0.374972  0.281246   # C_3 C_3 H_
 9 fourier  214.211821  0.343737  0.374972  0.281246   # C_3 C_3 C_3

Dihedral Coeffs

 1 harmonic 3.368555 -1 2   # C_2 C_R C_R N_3 M=4
 2 harmonic 3.368555 -1 2   # C_R C_R C_R N_3 M=4
 3 harmonic 0.125000 -1 6   # C_R C_R N_3 H_ M=4
 4 harmonic 0.125000 -1 6   # C_3 N_3 C_R C_R M=4
 5 harmonic 3.368555 -1 2   # H_ C_R C_R N_3 M=4
 6 harmonic 0.081375 1 3   # C_R N_3 C_3 H_ M=6
 7 harmonic 0.081375 1 3   # C_3 C_3 N_3 C_R M=6
 8 harmonic 0.081375 1 3   # H_ C_3 N_3 H_ M=6
 9 harmonic 0.081375 1 3   # C_3 C_3 N_3 H_ M=6
 10 harmonic 0.117722 1 3   # H_ C_3 C_3 N_3 M=9
 11 harmonic 0.117722 1 3   # C_3 C_3 C_3 N_3 M=9
 12 harmonic 0.117722 1 3   # H_ C_3 C_3 H_ M=9
 13 harmonic 0.117722 1 3   # C_3 C_3 C_3 H_ M=9
 14 harmonic 0.117722 1 3   # C_3 C_3 C_3 C_3 M=9

Atoms

 1 1 1   0.000000   2.481771   0.000000   0.000000   # Zr3+4
 2 1 1   0.000000   2.481771  10.350200  10.350200   # Zr3+4
 3 1 1   0.000000  12.831971   0.000000  10.350200   # Zr3+4
 4 1 1   0.000000  12.831971  10.350200   0.000000   # Zr3+4
 5 1 1   0.000000  18.218629   0.000000   0.000000   # Zr3+4
 6 1 1   0.000000  18.218629  10.350200  10.350200   # Zr3+4
 7 1 1   0.000000   7.868429   0.000000  10.350200   # Zr3+4
 8 1 1   0.000000   7.868429  10.350200   0.000000   # Zr3+4
 9 1 1   0.000000   0.000000   2.481771   0.000000   # Zr3+4
 10 1 1   0.000000   0.000000  12.831971  10.350200   # Zr3+4
 11 1 1   0.000000  10.350200   2.481771  10.350200   # Zr3+4
 12 1 1   0.000000  10.350200  12.831971   0.000000   # Zr3+4
 13 1 1   0.000000   0.000000  18.218629   0.000000   # Zr3+4
 14 1 1   0.000000   0.000000   7.868429  10.350200   # Zr3+4
 15 1 1   0.000000  10.350200  18.218629  10.350200   # Zr3+4
 16 1 1   0.000000  10.350200   7.868429   0.000000   # Zr3+4
 17 1 1   0.000000   0.000000   0.000000   2.481771   # Zr3+4
 18 1 1   0.000000   0.000000  10.350200  12.831971   # Zr3+4
 19 1 1   0.000000  10.350200   0.000000  12.831971   # Zr3+4
 20 1 1   0.000000  10.350200  10.350200   2.481771   # Zr3+4
 21 1 1   0.000000   0.000000   0.000000  18.218629   # Zr3+4
 22 1 1   0.000000   0.000000  10.350200   7.868429   # Zr3+4
 23 1 1   0.000000  10.350200   0.000000   7.868429   # Zr3+4
 24 1 1   0.000000  10.350200  10.350200  18.218629   # Zr3+4
 25 1 2   0.000000   1.161292   9.188908   9.188908   # O_3
 26 1 2   0.000000  11.511492  19.539108   9.188908   # O_3
 27 1 2   0.000000  11.511492   9.188908  19.539108   # O_3
 28 1 2   0.000000   9.188908   1.161292   9.188908   # O_3
 29 1 2   0.000000   9.188908  11.511492  19.539108   # O_3
 30 1 2   0.000000  19.539108  19.539108   1.161292   # O_3
 31 1 2   0.000000  19.539108   9.188908  11.511492   # O_3
 32 1 2   0.000000   1.161292   1.161292   1.161292   # O_3
 33 1 2   0.000000  11.511492  11.511492   1.161292   # O_3
 34 1 2   0.000000  19.539108   1.161292   1.161292   # O_3
 35 1 2   0.000000  19.539108  11.511492  11.511492   # O_3
 36 1 2   0.000000   9.188908   1.161292  11.511492   # O_3
 37 1 2   0.000000   9.188908  11.511492   1.161292   # O_3
 38 1 2   0.000000   1.161292  19.539108   1.161292   # O_3
 39 1 2   0.000000   1.161292   9.188908  11.511492   # O_3
 40 1 2   0.000000  11.511492  19.539108  11.511492   # O_3
 41 1 2   0.000000  11.511492   9.188908   1.161292   # O_3
 42 1 2   0.000000  19.539108  19.539108  19.539108   # O_3
 43 1 2   0.000000  19.539108   9.188908   9.188908   # O_3
 44 1 2   0.000000   9.188908  19.539108   9.188908   # O_3
 45 1 2   0.000000   9.188908   9.188908  19.539108   # O_3
 46 1 2   0.000000   1.161292   1.161292  19.539108   # O_3
 47 1 2   0.000000   1.161292  11.511492   9.188908   # O_3
 48 1 2   0.000000  11.511492   1.161292   9.188908   # O_3
 49 1 6   0.000000   3.179581   0.000000  17.520819   # C_2
 50 1 10   0.000000   3.528595   0.000000  18.727815   # O_1
 51 1 10   0.000000   1.972577  20.700400  17.171832   # O_1
 52 1 8   0.000000   4.243569   0.000000  16.456806   # C_R
 53 1 8   0.000000   3.816555  20.700400  15.162811   # C_R
 54 2 9   0.000000   2.700552  20.700400  14.930824   # N_3
 55 1 5   0.000000   4.580531  20.700400  13.051803   # H_
 56 1 8   0.000000   4.812543  20.700400  14.167800   # C_R
 57 1 8   0.000000   6.106548   0.000000  14.593785   # C_R
 58 1 8   0.000000   6.532563   0.000000  15.887781   # C_R
 59 1 8   0.000000   5.537574   0.000000  16.883792   # C_R
 60 1 5   0.000000   5.769587   0.000000  17.999789   # H_
 61 1 5   0.000000   7.648566   0.000000  16.119768   # H_
 62 1 10   0.000000   8.377540   0.000000  13.878760   # O_1
 63 1 6   0.000000   7.170536   0.000000  13.529773   # C_2
 64 1 10   0.000000   6.821523  20.700400  12.322777   # O_1
 65 2 5   0.000000   2.030861  20.664487  15.719247   # H_
 66 2 7   0.000000   1.938850   0.093370  13.701579   # C_3
 67 2 5   0.000000   2.499350   0.575723  12.892485   # H_
 68 2 5   0.000000   1.070581   0.739015  13.885768   # H_
 69 2 7   0.000000   1.448964  19.408991  13.278136   # C_3
 70 2 5   0.000000   2.307919  18.737139  13.165365   # H_
 71 2 7   0.000000   0.663921  19.477880  11.966989   # C_3
 72 2 5   0.000000   0.816475  18.988057  14.069698   # H_
 73 2 5   0.000000   1.333863  19.788692  11.155988   # H_
 74 2 5   0.000000  20.588184  20.249234  12.047389   # H_
 75 2 7   0.000000  20.686472  18.158447  11.592575   # C_3
 76 2 7   0.000000   0.958816  17.007556  11.390020   # C_3
 77 2 5   0.000000  20.123043  18.309604  10.663983   # H_
 78 2 5   0.000000  19.956936  17.885003  12.363738   # H_
 79 2 5   0.000000   1.735186  17.270364  10.664922   # H_
 80 2 5   0.000000   0.426364  16.127774  11.014672   # H_
 81 2 5   0.000000   1.442471  16.723854  12.329566   # H_
 82 1 6   0.000000   3.179581  10.350200   7.170619   # C_2
 83 1 10   0.000000   3.528595  10.350200   8.377615   # O_1
 84 1 10   0.000000   1.972577  10.350200   6.821632   # O_1
 85 1 8   0.000000   4.243569  10.350200   6.106606   # C_R
 86 1 8   0.000000   3.816555  10.350200   4.812611   # C_R
 87 2 9   0.000000   2.700552  10.350200   4.580624   # N_3
 88 1 5   0.000000   4.580531  10.350200   2.701603   # H_
 89 1 8   0.000000   4.812543  10.350200   3.817600   # C_R
 90 1 8   0.000000   6.106548  10.350200   4.243585   # C_R
 91 1 8   0.000000   6.532563  10.350200   5.537581   # C_R
 92 1 8   0.000000   5.537574  10.350200   6.533592   # C_R
 93 1 5   0.000000   5.769587  10.350200   7.649589   # H_
 94 1 5   0.000000   7.648566  10.350200   5.769568   # H_
 95 1 10   0.000000   8.377540  10.350200   3.528560   # O_1
 96 1 6   0.000000   7.170536  10.350200   3.179573   # C_2
 97 1 10   0.000000   6.821523  10.350200   1.972577   # O_1
 98 2 5   0.000000   2.030861  10.314287   5.369047   # H_
 99 2 7   0.000000   1.938850  10.443570   3.351379   # C_3
 100 2 5   0.000000   2.499350  10.925923   2.542285   # H_
 101 2 5   0.000000   1.070581  11.089215   3.535568   # H_
 102 2 7   0.000000   1.448964   9.058791   2.927936   # C_3
 103 2 5   0.000000   2.307919   8.386939   2.815165   # H_
 104 2 7   0.000000   0.663921   9.127680   1.616789   # C_3
 105 2 5   0.000000   0.816475   8.637857   3.719498   # H_
 106 2 5   0.000000   1.333863   9.438492   0.805788   # H_
 107 2 5   0.000000  20.588184   9.899034   1.697189   # H_
 108 2 7   0.000000  20.686472   7.808247   1.242375   # C_3
 109 2 7   0.000000   0.958816   6.657356   1.039820   # C_3
 110 2 5   0.000000  20.123043   7.959404   0.313783   # H_
 111 2 5   0.000000  19.956936   7.534803   2.013538   # H_
 112 2 5   0.000000   1.735186   6.920164   0.314722   # H_
 113 2 5   0.000000   0.426364   5.777574   0.664472   # H_
 114 2 5   0.000000   1.442471   6.373654   1.979366   # H_
 115 1 6   0.000000  13.529781   0.000000   7.170619   # C_2
 116 1 10   0.000000  13.878795   0.000000   8.377615   # O_1
 117 1 10   0.000000  12.322777  20.700400   6.821632   # O_1
 118 1 8   0.000000  14.593769   0.000000   6.106606   # C_R
 119 1 8   0.000000  14.166755  20.700400   4.812611   # C_R
 120 2 9   0.000000  13.050752  20.700400   4.580624   # N_3
 121 1 5   0.000000  14.930731  20.700400   2.701603   # H_
 122 1 8   0.000000  15.162743  20.700400   3.817600   # C_R
 123 1 8   0.000000  16.456748   0.000000   4.243585   # C_R
 124 1 8   0.000000  16.882763   0.000000   5.537581   # C_R
 125 1 8   0.000000  15.887774   0.000000   6.533592   # C_R
 126 1 5   0.000000  16.119787   0.000000   7.649589   # H_
 127 1 5   0.000000  17.998766   0.000000   5.769568   # H_
 128 1 10   0.000000  18.727740   0.000000   3.528560   # O_1
 129 1 6   0.000000  17.520736   0.000000   3.179573   # C_2
 130 1 10   0.000000  17.171723  20.700400   1.972577   # O_1
 131 2 5   0.000000  12.381061  20.664487   5.369047   # H_
 132 2 7   0.000000  12.289050   0.093370   3.351379   # C_3
 133 2 5   0.000000  12.849550   0.575723   2.542285   # H_
 134 2 5   0.000000  11.420781   0.739015   3.535568   # H_
 135 2 7   0.000000  11.799164  19.408991   2.927936   # C_3
 136 2 5   0.000000  12.658119  18.737139   2.815165   # H_
 137 2 7   0.000000  11.014121  19.477880   1.616789   # C_3
 138 2 5   0.000000  11.166675  18.988057   3.719498   # H_
 139 2 5   0.000000  11.684063  19.788692   0.805788   # H_
 140 2 5   0.000000  10.237984  20.249234   1.697189   # H_
 141 2 7   0.000000  10.336272  18.158447   1.242375   # C_3
 142 2 7   0.000000  11.309016  17.007556   1.039820   # C_3
 143 2 5   0.000000   9.772843  18.309604   0.313783   # H_
 144 2 5   0.000000   9.606736  17.885003   2.013538   # H_
 145 2 5   0.000000  12.085386  17.270364   0.314722   # H_
 146 2 5   0.000000  10.776564  16.127774   0.664472   # H_
 147 2 5   0.000000  11.792671  16.723854   1.979366   # H_
 148 1 6   0.000000  13.529781  10.350200  17.520819   # C_2
 149 1 10   0.000000  13.878795  10.350200  18.727815   # O_1
 150 1 10   0.000000  12.322777  10.350200  17.171832   # O_1
 151 1 8   0.000000  14.593769  10.350200  16.456806   # C_R
 152 1 8   0.000000  14.166755  10.350200  15.162811   # C_R
 153 2 9   0.000000  13.050752  10.350200  14.930824   # N_3
 154 1 5   0.000000  14.930731  10.350200  13.051803   # H_
 155 1 8   0.000000  15.162743  10.350200  14.167800   # C_R
 156 1 8   0.000000  16.456748  10.350200  14.593785   # C_R
 157 1 8   0.000000  16.882763  10.350200  15.887781   # C_R
 158 1 8   0.000000  15.887774  10.350200  16.883792   # C_R
 159 1 5   0.000000  16.119787  10.350200  17.999789   # H_
 160 1 5   0.000000  17.998766  10.350200  16.119768   # H_
 161 1 10   0.000000  18.727740  10.350200  13.878760   # O_1
 162 1 6   0.000000  17.520736  10.350200  13.529773   # C_2
 163 1 10   0.000000  17.171723  10.350200  12.322777   # O_1
 164 2 5   0.000000  12.381061  10.314287  15.719247   # H_
 165 2 7   0.000000  12.289050  10.443570  13.701579   # C_3
 166 2 5   0.000000  12.849550  10.925923  12.892485   # H_
 167 2 5   0.000000  11.420781  11.089215  13.885768   # H_
 168 2 7   0.000000  11.799164   9.058791  13.278136   # C_3
 169 2 5   0.000000  12.658119   8.386939  13.165365   # H_
 170 2 7   0.000000  11.014121   9.127680  11.966989   # C_3
 171 2 5   0.000000  11.166675   8.637857  14.069698   # H_
 172 2 5   0.000000  11.684063   9.438492  11.155988   # H_
 173 2 5   0.000000  10.237984   9.899034  12.047389   # H_
 174 2 7   0.000000  10.336272   7.808247  11.592575   # C_3
 175 2 7   0.000000  11.309016   6.657356  11.390020   # C_3
 176 2 5   0.000000   9.772843   7.959404  10.663983   # H_
 177 2 5   0.000000   9.606736   7.534803  12.363738   # H_
 178 2 5   0.000000  12.085386   6.920164  10.664922   # H_
 179 2 5   0.000000  10.776564   5.777574  11.014672   # H_
 180 2 5   0.000000  11.792671   6.373654  12.329566   # H_
 181 1 6   0.000000  17.520819   0.000000  17.520819   # C_2
 182 1 10   0.000000  17.171805   0.000000  18.727815   # O_1
 183 1 10   0.000000  18.727823   0.000000  17.171832   # O_1
 184 1 8   0.000000  16.456831   0.000000  16.456806   # C_R
 185 1 8   0.000000  16.883845   0.000000  15.162811   # C_R
 186 2 9   0.000000  17.999848   0.000000  14.930824   # N_3
 187 1 5   0.000000  16.119869   0.000000  13.051803   # H_
 188 1 8   0.000000  15.887857   0.000000  14.167800   # C_R
 189 1 8   0.000000  14.593852   0.000000  14.593785   # C_R
 190 1 8   0.000000  14.167837   0.000000  15.887781   # C_R
 191 1 8   0.000000  15.162826   0.000000  16.883792   # C_R
 192 1 5   0.000000  14.930813   0.000000  17.999789   # H_
 193 1 5   0.000000  13.051834   0.000000  16.119768   # H_
 194 1 10   0.000000  12.322860   0.000000  13.878760   # O_1
 195 1 6   0.000000  13.529864   0.000000  13.529773   # C_2
 196 1 10   0.000000  13.878877   0.000000  12.322777   # O_1
 197 2 5   0.000000  18.669539   0.035913  15.719247   # H_
 198 2 7   0.000000  18.761550  20.607030  13.701579   # C_3
 199 2 5   0.000000  18.201050  20.124677  12.892485   # H_
 200 2 5   0.000000  19.629819  19.961385  13.885768   # H_
 201 2 7   0.000000  19.251436   1.291409  13.278136   # C_3
 202 2 5   0.000000  18.392481   1.963261  13.165365   # H_
 203 2 7   0.000000  20.036479   1.222520  11.966989   # C_3
 204 2 5   0.000000  19.883925   1.712343  14.069698   # H_
 205 2 5   0.000000  19.366537   0.911708  11.155988   # H_
 206 2 5   0.000000   0.112216   0.451166  12.047389   # H_
 207 2 7   0.000000   0.013928   2.541953  11.592575   # C_3
 208 2 7   0.000000  19.741584   3.692844  11.390020   # C_3
 209 2 5   0.000000   0.577357   2.390796  10.663983   # H_
 210 2 5   0.000000   0.743464   2.815397  12.363738   # H_
 211 2 5   0.000000  18.965214   3.430036  10.664922   # H_
 212 2 5   0.000000  20.274036   4.572626  11.014672   # H_
 213 2 5   0.000000  19.257929   3.976546  12.329566   # H_
 214 1 6   0.000000  17.520819  10.350200   7.170619   # C_2
 215 1 10   0.000000  17.171805  10.350200   8.377615   # O_1
 216 1 10   0.000000  18.727823  10.350200   6.821632   # O_1
 217 1 8   0.000000  16.456831  10.350200   6.106606   # C_R
 218 1 8   0.000000  16.883845  10.350200   4.812611   # C_R
 219 2 9   0.000000  17.999848  10.350200   4.580624   # N_3
 220 1 5   0.000000  16.119869  10.350200   2.701603   # H_
 221 1 8   0.000000  15.887857  10.350200   3.817600   # C_R
 222 1 8   0.000000  14.593852  10.350200   4.243585   # C_R
 223 1 8   0.000000  14.167837  10.350200   5.537581   # C_R
 224 1 8   0.000000  15.162826  10.350200   6.533592   # C_R
 225 1 5   0.000000  14.930813  10.350200   7.649589   # H_
 226 1 5   0.000000  13.051834  10.350200   5.769568   # H_
 227 1 10   0.000000  12.322860  10.350200   3.528560   # O_1
 228 1 6   0.000000  13.529864  10.350200   3.179573   # C_2
 229 1 10   0.000000  13.878877  10.350200   1.972577   # O_1
 230 2 5   0.000000  18.669539  10.386113   5.369047   # H_
 231 2 7   0.000000  18.761550  10.256830   3.351379   # C_3
 232 2 5   0.000000  18.201050   9.774477   2.542285   # H_
 233 2 5   0.000000  19.629819   9.611185   3.535568   # H_
 234 2 7   0.000000  19.251436  11.641609   2.927936   # C_3
 235 2 5   0.000000  18.392481  12.313461   2.815165   # H_
 236 2 7   0.000000  20.036479  11.572720   1.616789   # C_3
 237 2 5   0.000000  19.883925  12.062543   3.719498   # H_
 238 2 5   0.000000  19.366537  11.261908   0.805788   # H_
 239 2 5   0.000000   0.112216  10.801366   1.697189   # H_
 240 2 7   0.000000   0.013928  12.892153   1.242375   # C_3
 241 2 7   0.000000  19.741584  14.043044   1.039820   # C_3
 242 2 5   0.000000   0.577357  12.740996   0.313783   # H_
 243 2 5   0.000000   0.743464  13.165597   2.013538   # H_
 244 2 5   0.000000  18.965214  13.780236   0.314722   # H_
 245 2 5   0.000000  20.274036  14.922826   0.664472   # H_
 246 2 5   0.000000  19.257929  14.326746   1.979366   # H_
 247 1 6   0.000000   7.170619   0.000000   7.170619   # C_2
 248 1 10   0.000000   6.821605   0.000000   8.377615   # O_1
 249 1 10   0.000000   8.377623   0.000000   6.821632   # O_1
 250 1 8   0.000000   6.106631   0.000000   6.106606   # C_R
 251 1 8   0.000000   6.533645   0.000000   4.812611   # C_R
 252 2 9   0.000000   7.649648   0.000000   4.580624   # N_3
 253 1 5   0.000000   5.769669   0.000000   2.701603   # H_
 254 1 8   0.000000   5.537657   0.000000   3.817600   # C_R
 255 1 8   0.000000   4.243652   0.000000   4.243585   # C_R
 256 1 8   0.000000   3.817637   0.000000   5.537581   # C_R
 257 1 8   0.000000   4.812626   0.000000   6.533592   # C_R
 258 1 5   0.000000   4.580613   0.000000   7.649589   # H_
 259 1 5   0.000000   2.701634   0.000000   5.769568   # H_
 260 1 10   0.000000   1.972660   0.000000   3.528560   # O_1
 261 1 6   0.000000   3.179664   0.000000   3.179573   # C_2
 262 1 10   0.000000   3.528677   0.000000   1.972577   # O_1
 263 2 5   0.000000   8.319339   0.035913   5.369047   # H_
 264 2 7   0.000000   8.411350  20.607030   3.351379   # C_3
 265 2 5   0.000000   7.850850  20.124677   2.542285   # H_
 266 2 5   0.000000   9.279619  19.961385   3.535568   # H_
 267 2 7   0.000000   8.901236   1.291409   2.927936   # C_3
 268 2 5   0.000000   8.042281   1.963261   2.815165   # H_
 269 2 7   0.000000   9.686279   1.222520   1.616789   # C_3
 270 2 5   0.000000   9.533725   1.712343   3.719498   # H_
 271 2 5   0.000000   9.016337   0.911708   0.805788   # H_
 272 2 5   0.000000  10.462416   0.451166   1.697189   # H_
 273 2 7   0.000000  10.364128   2.541953   1.242375   # C_3
 274 2 7   0.000000   9.391384   3.692844   1.039820   # C_3
 275 2 5   0.000000  10.927557   2.390796   0.313783   # H_
 276 2 5   0.000000  11.093664   2.815397   2.013538   # H_
 277 2 5   0.000000   8.615014   3.430036   0.314722   # H_
 278 2 5   0.000000   9.923836   4.572626   0.664472   # H_
 279 2 5   0.000000   8.907729   3.976546   1.979366   # H_
 280 1 6   0.000000   7.170619  10.350200  17.520819   # C_2
 281 1 10   0.000000   6.821605  10.350200  18.727815   # O_1
 282 1 10   0.000000   8.377623  10.350200  17.171832   # O_1
 283 1 8   0.000000   6.106631  10.350200  16.456806   # C_R
 284 1 8   0.000000   6.533645  10.350200  15.162811   # C_R
 285 2 9   0.000000   7.649648  10.350200  14.930824   # N_3
 286 1 5   0.000000   5.769669  10.350200  13.051803   # H_
 287 1 8   0.000000   5.537657  10.350200  14.167800   # C_R
 288 1 8   0.000000   4.243652  10.350200  14.593785   # C_R
 289 1 8   0.000000   3.817637  10.350200  15.887781   # C_R
 290 1 8   0.000000   4.812626  10.350200  16.883792   # C_R
 291 1 5   0.000000   4.580613  10.350200  17.999789   # H_
 292 1 5   0.000000   2.701634  10.350200  16.119768   # H_
 293 1 10   0.000000   1.972660  10.350200  13.878760   # O_1
 294 1 6   0.000000   3.179664  10.350200  13.529773   # C_2
 295 1 10   0.000000   3.528677  10.350200  12.322777   # O_1
 296 2 5   0.000000   8.319339  10.386113  15.719247   # H_
 297 2 7   0.000000   8.411350  10.256830  13.701579   # C_3
 298 2 5   0.000000   7.850850   9.774477  12.892485   # H_
 299 2 5   0.000000   9.279619   9.611185  13.885768   # H_
 300 2 7   0.000000   8.901236  11.641609  13.278136   # C_3
 301 2 5   0.000000   8.042281  12.313461  13.165365   # H_
 302 2 7   0.000000   9.686279  11.572720  11.966989   # C_3
 303 2 5   0.000000   9.533725  12.062543  14.069698   # H_
 304 2 5   0.000000   9.016337  11.261908  11.155988   # H_
 305 2 5   0.000000  10.462416  10.801366  12.047389   # H_
 306 2 7   0.000000  10.364128  12.892153  11.592575   # C_3
 307 2 7   0.000000   9.391384  14.043044  11.390020   # C_3
 308 2 5   0.000000  10.927557  12.740996  10.663983   # H_
 309 2 5   0.000000  11.093664  13.165597  12.363738   # H_
 310 2 5   0.000000   8.615014  13.780236  10.664922   # H_
 311 2 5   0.000000   9.923836  14.922826  11.014672   # H_
 312 2 5   0.000000   8.907729  14.326746  12.329566   # H_
 313 1 6   0.000000  17.520819   3.179581   0.000000   # C_2
 314 1 10   0.000000  18.727815   3.528595  20.700400   # O_1
 315 1 10   0.000000  17.171832   1.972577   0.000000   # O_1
 316 1 8   0.000000  16.456806   4.243569  20.700400   # C_R
 317 1 8   0.000000  15.162811   3.816555   0.000000   # C_R
 318 2 9   0.000000  14.930824   2.700552   0.000000   # N_3
 319 1 5   0.000000  13.051803   4.580531   0.000000   # H_
 320 1 8   0.000000  14.167800   4.812543   0.000000   # C_R
 321 1 8   0.000000  14.593785   6.106548  20.700400   # C_R
 322 1 8   0.000000  15.887781   6.532563  20.700400   # C_R
 323 1 8   0.000000  16.883792   5.537574  20.700400   # C_R
 324 1 5   0.000000  17.999789   5.769587  20.700400   # H_
 325 1 5   0.000000  16.119768   7.648566  20.700400   # H_
 326 1 10   0.000000  13.878760   8.377540  20.700400   # O_1
 327 1 6   0.000000  13.529773   7.170536  20.700400   # C_2
 328 1 10   0.000000  12.322777   6.821523   0.000000   # O_1
 329 2 5   0.000000  15.719247   2.030861  20.664487   # H_
 330 2 7   0.000000  13.701579   1.938850   0.093370   # C_3
 331 2 5   0.000000  12.892485   2.499350   0.575723   # H_
 332 2 5   0.000000  13.885768   1.070581   0.739015   # H_
 333 2 7   0.000000  13.278136   1.448964  19.408991   # C_3
 334 2 5   0.000000  13.165365   2.307919  18.737139   # H_
 335 2 7   0.000000  11.966989   0.663921  19.477880   # C_3
 336 2 5   0.000000  14.069698   0.816475  18.988057   # H_
 337 2 5   0.000000  11.155988   1.333863  19.788692   # H_
 338 2 5   0.000000  12.047389  20.588184  20.249234   # H_
 339 2 7   0.000000  11.592575  20.686472  18.158447   # C_3
 340 2 7   0.000000  11.390020   0.958816  17.007556   # C_3
 341 2 5   0.000000  10.663983  20.123043  18.309604   # H_
 342 2 5   0.000000  12.363738  19.956936  17.885003   # H_
 343 2 5   0.000000  10.664922   1.735186  17.270364   # H_
 344 2 5   0.000000  11.014672   0.426364  16.127774   # H_
 345 2 5   0.000000  12.329566   1.442471  16.723854   # H_
 346 1 6   0.000000  17.520819  13.529781  10.350200   # C_2
 347 1 10   0.000000  18.727815  13.878795  10.350200   # O_1
 348 1 10   0.000000  17.171832  12.322777  10.350200   # O_1
 349 1 8   0.000000  16.456806  14.593769  10.350200   # C_R
 350 1 8   0.000000  15.162811  14.166755  10.350200   # C_R
 351 2 9   0.000000  14.930824  13.050752  10.350200   # N_3
 352 1 5   0.000000  13.051803  14.930731  10.350200   # H_
 353 1 8   0.000000  14.167800  15.162743  10.350200   # C_R
 354 1 8   0.000000  14.593785  16.456748  10.350200   # C_R
 355 1 8   0.000000  15.887781  16.882763  10.350200   # C_R
 356 1 8   0.000000  16.883792  15.887774  10.350200   # C_R
 357 1 5   0.000000  17.999789  16.119787  10.350200   # H_
 358 1 5   0.000000  16.119768  17.998766  10.350200   # H_
 359 1 10   0.000000  13.878760  18.727740  10.350200   # O_1
 360 1 6   0.000000  13.529773  17.520736  10.350200   # C_2
 361 1 10   0.000000  12.322777  17.171723  10.350200   # O_1
 362 2 5   0.000000  15.719247  12.381061  10.314287   # H_
 363 2 7   0.000000  13.701579  12.289050  10.443570   # C_3
 364 2 5   0.000000  12.892485  12.849550  10.925923   # H_
 365 2 5   0.000000  13.885768  11.420781  11.089215   # H_
 366 2 7   0.000000  13.278136  11.799164   9.058791   # C_3
 367 2 5   0.000000  13.165365  12.658119   8.386939   # H_
 368 2 7   0.000000  11.966989  11.014121   9.127680   # C_3
 369 2 5   0.000000  14.069698  11.166675   8.637857   # H_
 370 2 5   0.000000  11.155988  11.684063   9.438492   # H_
 371 2 5   0.000000  12.047389  10.237984   9.899034   # H_
 372 2 7   0.000000  11.592575  10.336272   7.808247   # C_3
 373 2 7   0.000000  11.390020  11.309016   6.657356   # C_3
 374 2 5   0.000000  10.663983   9.772843   7.959404   # H_
 375 2 5   0.000000  12.363738   9.606736   7.534803   # H_
 376 2 5   0.000000  10.664922  12.085386   6.920164   # H_
 377 2 5   0.000000  11.014672  10.776564   5.777574   # H_
 378 2 5   0.000000  12.329566  11.792671   6.373654   # H_
 379 1 6   0.000000   7.170619   3.179581  10.350200   # C_2
 380 1 10   0.000000   8.377615   3.528595  10.350200   # O_1
 381 1 10   0.000000   6.821632   1.972577  10.350200   # O_1
 382 1 8   0.000000   6.106606   4.243569  10.350200   # C_R
 383 1 8   0.000000   4.812611   3.816555  10.350200   # C_R
 384 2 9   0.000000   4.580624   2.700552  10.350200   # N_3
 385 1 5   0.000000   2.701603   4.580531  10.350200   # H_
 386 1 8   0.000000   3.817600   4.812543  10.350200   # C_R
 387 1 8   0.000000   4.243585   6.106548  10.350200   # C_R
 388 1 8   0.000000   5.537581   6.532563  10.350200   # C_R
 389 1 8   0.000000   6.533592   5.537574  10.350200   # C_R
 390 1 5   0.000000   7.649589   5.769587  10.350200   # H_
 391 1 5   0.000000   5.769568   7.648566  10.350200   # H_
 392 1 10   0.000000   3.528560   8.377540  10.350200   # O_1
 393 1 6   0.000000   3.179573   7.170536  10.350200   # C_2
 394 1 10   0.000000   1.972577   6.821523  10.350200   # O_1
 395 2 5   0.000000   5.369047   2.030861  10.314287   # H_
 396 2 7   0.000000   3.351379   1.938850  10.443570   # C_3
 397 2 5   0.000000   2.542285   2.499350  10.925923   # H_
 398 2 5   0.000000   3.535568   1.070581  11.089215   # H_
 399 2 7   0.000000   2.927936   1.448964   9.058791   # C_3
 400 2 5   0.000000   2.815165   2.307919   8.386939   # H_
 401 2 7   0.000000   1.616789   0.663921   9.127680   # C_3
 402 2 5   0.000000   3.719498   0.816475   8.637857   # H_
 403 2 5   0.000000   0.805788   1.333863   9.438492   # H_
 404 2 5   0.000000   1.697189  20.588184   9.899034   # H_
 405 2 7   0.000000   1.242375  20.686472   7.808247   # C_3
 406 2 7   0.000000   1.039820   0.958816   6.657356   # C_3
 407 2 5   0.000000   0.313783  20.123043   7.959404   # H_
 408 2 5   0.000000   2.013538  19.956936   7.534803   # H_
 409 2 5   0.000000   0.314722   1.735186   6.920164   # H_
 410 2 5   0.000000   0.664472   0.426364   5.777574   # H_
 411 2 5   0.000000   1.979366   1.442471   6.373654   # H_
 412 1 6   0.000000   7.170619  13.529781   0.000000   # C_2
 413 1 10   0.000000   8.377615  13.878795   0.000000   # O_1
 414 1 10   0.000000   6.821632  12.322777  20.700400   # O_1
 415 1 8   0.000000   6.106606  14.593769   0.000000   # C_R
 416 1 8   0.000000   4.812611  14.166755   0.000000   # C_R
 417 2 9   0.000000   4.580624  13.050752  20.700400   # N_3
 418 1 5   0.000000   2.701603  14.930731   0.000000   # H_
 419 1 8   0.000000   3.817600  15.162743   0.000000   # C_R
 420 1 8   0.000000   4.243585  16.456748   0.000000   # C_R
 421 1 8   0.000000   5.537581  16.882763   0.000000   # C_R
 422 1 8   0.000000   6.533592  15.887774   0.000000   # C_R
 423 1 5   0.000000   7.649589  16.119787   0.000000   # H_
 424 1 5   0.000000   5.769568  17.998766   0.000000   # H_
 425 1 10   0.000000   3.528560  18.727740   0.000000   # O_1
 426 1 6   0.000000   3.179573  17.520736   0.000000   # C_2
 427 1 10   0.000000   1.972577  17.171723   0.000000   # O_1
 428 2 5   0.000000   5.369047  12.381061  20.664487   # H_
 429 2 7   0.000000   3.351379  12.289050   0.093370   # C_3
 430 2 5   0.000000   2.542285  12.849550   0.575723   # H_
 431 2 5   0.000000   3.535568  11.420781   0.739015   # H_
 432 2 7   0.000000   2.927936  11.799164  19.408991   # C_3
 433 2 5   0.000000   2.815165  12.658119  18.737139   # H_
 434 2 7   0.000000   1.616789  11.014121  19.477880   # C_3
 435 2 5   0.000000   3.719498  11.166675  18.988057   # H_
 436 2 5   0.000000   0.805788  11.684063  19.788692   # H_
 437 2 5   0.000000   1.697189  10.237984  20.249234   # H_
 438 2 7   0.000000   1.242375  10.336272  18.158447   # C_3
 439 2 7   0.000000   1.039820  11.309016  17.007556   # C_3
 440 2 5   0.000000   0.313783   9.772843  18.309604   # H_
 441 2 5   0.000000   2.013538   9.606736  17.885003   # H_
 442 2 5   0.000000   0.314722  12.085386  17.270364   # H_
 443 2 5   0.000000   0.664472  10.776564  16.127774   # H_
 444 2 5   0.000000   1.979366  11.792671  16.723854   # H_
 445 1 6   0.000000  17.520819  17.520819   0.000000   # C_2
 446 1 10   0.000000  18.727815  17.171805  20.700400   # O_1
 447 1 10   0.000000  17.171832  18.727823   0.000000   # O_1
 448 1 8   0.000000  16.456806  16.456831   0.000000   # C_R
 449 1 8   0.000000  15.162811  16.883845   0.000000   # C_R
 450 2 9   0.000000  14.930824  17.999848   0.000000   # N_3
 451 1 5   0.000000  13.051803  16.119869   0.000000   # H_
 452 1 8   0.000000  14.167800  15.887857   0.000000   # C_R
 453 1 8   0.000000  14.593785  14.593852   0.000000   # C_R
 454 1 8   0.000000  15.887781  14.167837  20.700400   # C_R
 455 1 8   0.000000  16.883792  15.162826  20.700400   # C_R
 456 1 5   0.000000  17.999789  14.930813  20.700400   # H_
 457 1 5   0.000000  16.119768  13.051834  20.700400   # H_