 (written by mofun)

824 atoms
192 bonds
384 angles
480 dihedrals
0 impropers

10 atom types
2 bond types
3 angle types
4 dihedral types
   0.000000  26.896000 xlo xhi
   0.000000  26.896000 ylo yhi
   0.000000  26.896000 zlo zhi

Masses

 1 91.2240   # Zr3+4
 2 15.9994   # O_3
 3 12.0107   # C_3
 4 1.0079   # H_
 5 1.0079   # H_
 6 12.0107   # C_2
 7 12.0107   # C_3
 8 12.0107   # C_R
 9 15.9994   # O_1
 10 18.9984   # F_

Pair Coeffs

 1   0.069000   2.783168 # Zr3+4
 2   0.060000   3.118146 # O_3
 3   0.105000   3.430851 # C_3
 4   0.044000   2.571134 # H_
 5 0.044000 2.571134   # H_
 6 0.105000 3.430851   # C_2
 7 0.105000 3.430851   # C_3
 8 0.105000 3.430851   # C_R
 9 0.060000 3.118146   # O_1
 10 0.050000 2.996983   # F_

Bond Coeffs

 1 369.943935 1.486000   # C_3 C_R
 2 417.765733 1.381520   # C_3 F_

Angle Coeffs

 1 cosine/periodic  198.274298  -1  3   # C_3 C_R C_R
 2 fourier  228.308706  0.343737  0.374972  0.281246   # C_R C_3 F_
 3 fourier  232.152372  0.343737  0.374972  0.281246   # F_ C_3 F_

Dihedral Coeffs

 1 harmonic 3.368555 -1 2   # C_2 C_R C_R C_3 M=4
 2 harmonic 3.368555 -1 2   # C_3 C_R C_R C_R M=4
 3 harmonic 3.368555 -1 2   # C_3 C_R C_R H_ M=4
 4 harmonic 0.083333 -1 6   # C_R C_R C_3 F_ M=6

Atoms

 1 1 1   0.000000   2.475508   0.000000   0.000000   # Zr3+4
 2 1 1   0.000000  24.420492   0.000000   0.000000   # Zr3+4
 3 1 1   0.000000   0.000000   2.475508   0.000000   # Zr3+4
 4 1 1   0.000000   0.000000  24.420492   0.000000   # Zr3+4
 5 1 1   0.000000   0.000000   0.000000   2.475508   # Zr3+4
 6 1 1   0.000000   0.000000   0.000000  24.420492   # Zr3+4
 7 1 1   0.000000   2.475508  13.448000  13.448000   # Zr3+4
 8 1 1   0.000000  24.420492  13.448000  13.448000   # Zr3+4
 9 1 1   0.000000   0.000000  15.923508  13.448000   # Zr3+4
 10 1 1   0.000000   0.000000  10.972492  13.448000   # Zr3+4
 11 1 1   0.000000   0.000000  13.448000  15.923508   # Zr3+4
 12 1 1   0.000000   0.000000  13.448000  10.972492   # Zr3+4
 13 1 1   0.000000  15.923508   0.000000  13.448000   # Zr3+4
 14 1 1   0.000000  10.972492   0.000000  13.448000   # Zr3+4
 15 1 1   0.000000  13.448000   2.475508  13.448000   # Zr3+4
 16 1 1   0.000000  13.448000  24.420492  13.448000   # Zr3+4
 17 1 1   0.000000  13.448000   0.000000  15.923508   # Zr3+4
 18 1 1   0.000000  13.448000   0.000000  10.972492   # Zr3+4
 19 1 1   0.000000  15.923508  13.448000   0.000000   # Zr3+4
 20 1 1   0.000000  10.972492  13.448000   0.000000   # Zr3+4
 21 1 1   0.000000  13.448000  15.923508   0.000000   # Zr3+4
 22 1 1   0.000000  13.448000  10.972492   0.000000   # Zr3+4
 23 1 1   0.000000  13.448000  13.448000   2.475508   # Zr3+4
 24 1 1   0.000000  13.448000  13.448000  24.420492   # Zr3+4
 25 1 2   0.000000   1.221078   1.221078   1.221078   # O_3
 26 1 2   0.000000  25.674922  25.674922   1.221078   # O_3
 27 1 2   0.000000  25.674922   1.221078  25.674922   # O_3
 28 1 2   0.000000   1.221078  25.674922  25.674922   # O_3
 29 1 2   0.000000   1.221078   1.221078  25.674922   # O_3
 30 1 2   0.000000  25.674922  25.674922  25.674922   # O_3
 31 1 2   0.000000   1.221078  25.674922   1.221078   # O_3
 32 1 2   0.000000  25.674922   1.221078   1.221078   # O_3
 33 1 2   0.000000   1.221078  14.669078  14.669078   # O_3
 34 1 2   0.000000  25.674922  12.226922  14.669078   # O_3
 35 1 2   0.000000  25.674922  14.669078  12.226922   # O_3
 36 1 2   0.000000   1.221078  12.226922  12.226922   # O_3
 37 1 2   0.000000   1.221078  14.669078  12.226922   # O_3
 38 1 2   0.000000  25.674922  12.226922  12.226922   # O_3
 39 1 2   0.000000   1.221078  12.226922  14.669078   # O_3
 40 1 2   0.000000  25.674922  14.669078  14.669078   # O_3
 41 1 2   0.000000  14.669078   1.221078  14.669078   # O_3
 42 1 2   0.000000  12.226922  25.674922  14.669078   # O_3
 43 1 2   0.000000  12.226922   1.221078  12.226922   # O_3
 44 1 2   0.000000  14.669078  25.674922  12.226922   # O_3
 45 1 2   0.000000  14.669078   1.221078  12.226922   # O_3
 46 1 2   0.000000  12.226922  25.674922  12.226922   # O_3
 47 1 2   0.000000  14.669078  25.674922  14.669078   # O_3
 48 1 2   0.000000  12.226922   1.221078  14.669078   # O_3
 49 1 2   0.000000  14.669078  14.669078   1.221078   # O_3
 50 1 2   0.000000  12.226922  12.226922   1.221078   # O_3
 51 1 2   0.000000  12.226922  14.669078  25.674922   # O_3
 52 1 2   0.000000  14.669078  12.226922  25.674922   # O_3
 53 1 2   0.000000  14.669078  14.669078  25.674922   # O_3
 54 1 2   0.000000  12.226922  12.226922  25.674922   # O_3
 55 1 2   0.000000  14.669078  12.226922   1.221078   # O_3
 56 1 2   0.000000  12.226922  14.669078   1.221078   # O_3
 57 1 9   0.000000   3.566410   0.000000   1.933822   # O_1
 58 1 6   0.000000   3.152211   0.000000   3.152223   # C_2
 59 1 9   0.000000   1.933811  26.896000   3.566424   # O_1
 60 1 8   0.000000   4.209211   0.000000   4.209222   # C_R
 61 1 8   0.000000   5.535211   0.000000   3.891921   # C_R
 62 1 8   0.000000   3.891912   0.000000   5.535222   # C_R
 63 1 8   0.000000   6.508812   0.000000   4.827820   # C_R
 64 1 5   0.000000   5.780010  26.896000   2.996221   # H_
 65 1 8   0.000000   4.827813  26.896000   6.508821   # C_R
 66 2 7   0.000000   2.489575   0.000000   6.229372   # C_3
 67 1 8   0.000000   6.204913   0.000000   6.204920   # C_R
 68 1 8   0.000000   7.243114  26.896000   7.243120   # C_R
 69 1 5   0.000000   7.399112   0.000000   4.558920   # H_
 70 1 8   0.000000   8.620213   0.000000   6.939219   # C_R
 71 1 5   0.000000   4.558914   0.000000   7.399122   # H_
 72 1 8   0.000000   6.939215   0.000000   8.620220   # C_R
 73 1 8   0.000000   9.556114   0.000000   7.912818   # C_R
 74 1 5   0.000000   8.889113  26.896000   6.048918   # H_
 75 1 8   0.000000   7.912815   0.000000   9.556119   # C_R
 76 1 5   0.000000   6.048915   0.000000   8.889121   # H_
 77 1 8   0.000000   9.238815  26.896000   9.238818   # C_R
 78 1 6   0.000000  10.295816  26.896000  10.295817   # C_2
 79 2 7   0.000000  11.014394   0.000000   7.386993   # C_3
 80 1 5   0.000000   7.668016   0.000000  10.451819   # H_
 81 1 9   0.000000  11.514216   0.000000   9.881616   # O_1
 82 1 9   0.000000   9.881617   0.000000  11.514218   # O_1
 83 2 10   0.000000  11.036222   0.000000   5.999447   # F_
 84 2 10   0.000000  11.743840  25.780961   7.679477   # F_
 85 2 10   0.000000  11.743841   1.115038   7.679477   # F_
 86 2 10   0.000000   1.278928  26.895993   5.630283   # F_
 87 2 10   0.000000   2.410707   1.081413   7.089328   # F_
 88 2 10   0.000000   2.410712  25.814593   7.089337   # F_
 89 1 9   0.000000  23.329590   0.000000   1.933822   # O_1
 90 1 6   0.000000  23.743789   0.000000   3.152223   # C_2
 91 1 9   0.000000  24.962189   0.000000   3.566424   # O_1
 92 1 8   0.000000  22.686789   0.000000   4.209222   # C_R
 93 1 8   0.000000  21.360789  26.896000   3.891921   # C_R
 94 1 8   0.000000  23.004088   0.000000   5.535222   # C_R
 95 1 8   0.000000  20.387188  26.896000   4.827820   # C_R
 96 1 5   0.000000  21.115990  26.896000   2.996221   # H_
 97 1 8   0.000000  22.068187   0.000000   6.508821   # C_R
 98 2 7   0.000000  24.406425   0.000000   6.229372   # C_3
 99 1 8   0.000000  20.691087   0.000000   6.204920   # C_R
 100 1 8   0.000000  19.652886  26.896000   7.243120   # C_R
 101 1 5   0.000000  19.496888  26.896000   4.558920   # H_
 102 1 8   0.000000  18.275787  26.896000   6.939219   # C_R
 103 1 5   0.000000  22.337086   0.000000   7.399122   # H_
 104 1 8   0.000000  19.956785   0.000000   8.620220   # C_R
 105 1 8   0.000000  17.339886  26.896000   7.912818   # C_R
 106 1 5   0.000000  18.006887  26.896000   6.048918   # H_
 107 1 8   0.000000  18.983185   0.000000   9.556119   # C_R
 108 1 5   0.000000  20.847085   0.000000   8.889121   # H_
 109 1 8   0.000000  17.657185  26.896000   9.238818   # C_R
 110 1 6   0.000000  16.600184  26.896000  10.295817   # C_2
 111 2 7   0.000000  15.881606  26.896000   7.386993   # C_3
 112 1 5   0.000000  19.227984   0.000000  10.451819   # H_
 113 1 9   0.000000  15.381784  26.896000   9.881616   # O_1
 114 1 9   0.000000  17.014383  26.896000  11.514218   # O_1
 115 2 10   0.000000  15.859778  26.896000   5.999447   # F_
 116 2 10   0.000000  15.152160   1.115039   7.679477   # F_
 117 2 10   0.000000  15.152159  25.780962   7.679477   # F_
 118 2 10   0.000000  25.617072   0.000007   5.630283   # F_
 119 2 10   0.000000  24.485293  25.814587   7.089328   # F_
 120 2 10   0.000000  24.485288   1.081407   7.089337   # F_
 121 1 9   0.000000  23.329590   0.000000  24.962178   # O_1
 122 1 6   0.000000  23.743789   0.000000  23.743777   # C_2
 123 1 9   0.000000  24.962189   0.000000  23.329576   # O_1
 124 1 8   0.000000  22.686789   0.000000  22.686778   # C_R
 125 1 8   0.000000  21.360789  26.896000  23.004079   # C_R
 126 1 8   0.000000  23.004088   0.000000  21.360778   # C_R
 127 1 8   0.000000  20.387188  26.896000  22.068180   # C_R
 128 1 5   0.000000  21.115990  26.896000  23.899779   # H_
 129 1 8   0.000000  22.068187   0.000000  20.387179   # C_R
 130 2 7   0.000000  24.406425   0.000000  20.666628   # C_3
 131 1 8   0.000000  20.691087   0.000000  20.691080   # C_R
 132 1 8   0.000000  19.652886  26.896000  19.652880   # C_R
 133 1 5   0.000000  19.496888  26.896000  22.337080   # H_
 134 1 8   0.000000  18.275787  26.896000  19.956781   # C_R
 135 1 5   0.000000  22.337086   0.000000  19.496878   # H_
 136 1 8   0.000000  19.956785   0.000000  18.275780   # C_R
 137 1 8   0.000000  17.339886  26.896000  18.983182   # C_R
 138 1 5   0.000000  18.006887  26.896000  20.847082   # H_
 139 1 8   0.000000  18.983185   0.000000  17.339881   # C_R
 140 1 5   0.000000  20.847085   0.000000  18.006879   # H_
 141 1 8   0.000000  17.657185  26.896000  17.657182   # C_R
 142 1 6   0.000000  16.600184  26.896000  16.600183   # C_2
 143 2 7   0.000000  15.881606  26.896000  19.509007   # C_3
 144 1 5   0.000000  19.227984   0.000000  16.444181   # H_
 145 1 9   0.000000  15.381784  26.896000  17.014384   # O_1
 146 1 9   0.000000  17.014383  26.896000  15.381782   # O_1
 147 2 10   0.000000  15.859778  26.896000  20.896553   # F_
 148 2 10   0.000000  15.152160  25.780961  19.216523   # F_
 149 2 10   0.000000  15.152159   1.115038  19.216523   # F_
 150 2 10   0.000000  25.617072  26.895993  21.265717   # F_
 151 2 10   0.000000  24.485293   1.081413  19.806672   # F_
 152 2 10   0.000000  24.485288  25.814593  19.806663   # F_
 153 1 9   0.000000   3.566410   0.000000  24.962178   # O_1
 154 1 6   0.000000   3.152211   0.000000  23.743777   # C_2
 155 1 9   0.000000   1.933811   0.000000  23.329576   # O_1
 156 1 8   0.000000   4.209211   0.000000  22.686778   # C_R
 157 1 8   0.000000   5.535211   0.000000  23.004079   # C_R
 158 1 8   0.000000   3.891912   0.000000  21.360778   # C_R
 159 1 8   0.000000   6.508812   0.000000  22.068180   # C_R
 160 1 5   0.000000   5.780010   0.000000  23.899779   # H_
 161 1 8   0.000000   4.827813   0.000000  20.387179   # C_R
 162 2 7   0.000000   2.489575   0.000000  20.666628   # C_3
 163 1 8   0.000000   6.204913   0.000000  20.691080   # C_R
 164 1 8   0.000000   7.243114   0.000000  19.652880   # C_R
 165 1 5   0.000000   7.399112   0.000000  22.337080   # H_
 166 1 8   0.000000   8.620213   0.000000  19.956781   # C_R
 167 1 5   0.000000   4.558914   0.000000  19.496878   # H_
 168 1 8   0.000000   6.939215   0.000000  18.275780   # C_R
 169 1 8   0.000000   9.556114   0.000000  18.983182   # C_R
 170 1 5   0.000000   8.889113   0.000000  20.847082   # H_
 171 1 8   0.000000   7.912815   0.000000  17.339881   # C_R
 172 1 5   0.000000   6.048915   0.000000  18.006879   # H_
 173 1 8   0.000000   9.238815   0.000000  17.657182   # C_R
 174 1 6   0.000000  10.295816   0.000000  16.600183   # C_2
 175 2 7   0.000000  11.014394   0.000000  19.509007   # C_3
 176 1 5   0.000000   7.668016   0.000000  16.444181   # H_
 177 1 9   0.000000  11.514216   0.000000  17.014384   # O_1
 178 1 9   0.000000   9.881617   0.000000  15.381782   # O_1
 179 2 10   0.000000  11.036222   0.000000  20.896553   # F_
 180 2 10   0.000000  11.743840   1.115039  19.216523   # F_
 181 2 10   0.000000  11.743841  25.780962  19.216523   # F_
 182 2 10   0.000000   1.278928   0.000007  21.265717   # F_
 183 2 10   0.000000   2.410707  25.814587  19.806672   # F_
 184 2 10   0.000000   2.410712   1.081407  19.806663   # F_
 185 1 9   0.000000   1.933822   3.566410   0.000000   # O_1
 186 1 6   0.000000   3.152223   3.152211   0.000000   # C_2
 187 1 9   0.000000   3.566424   1.933811   0.000000   # O_1
 188 1 8   0.000000   4.209222   4.209211   0.000000   # C_R
 189 1 8   0.000000   3.891921   5.535211  26.896000   # C_R
 190 1 8   0.000000   5.535222   3.891912   0.000000   # C_R
 191 1 8   0.000000   4.827820   6.508812  26.896000   # C_R
 192 1 5   0.000000   2.996221   5.780010  26.896000   # H_
 193 1 8   0.000000   6.508821   4.827813   0.000000   # C_R
 194 2 7   0.000000   6.229372   2.489575   0.000000   # C_3
 195 1 8   0.000000   6.204920   6.204913   0.000000   # C_R
 196 1 8   0.000000   7.243120   7.243114  26.896000   # C_R
 197 1 5   0.000000   4.558920   7.399112  26.896000   # H_
 198 1 8   0.000000   6.939219   8.620213  26.896000   # C_R
 199 1 5   0.000000   7.399122   4.558914   0.000000   # H_
 200 1 8   0.000000   8.620220   6.939215   0.000000   # C_R
 201 1 8   0.000000   7.912818   9.556114  26.896000   # C_R
 202 1 5   0.000000   6.048918   8.889113  26.896000   # H_
 203 1 8   0.000000   9.556119   7.912815   0.000000   # C_R
 204 1 5   0.000000   8.889121   6.048915   0.000000   # H_
 205 1 8   0.000000   9.238818   9.238815  26.896000   # C_R
 206 1 6   0.000000  10.295817  10.295816  26.896000   # C_2
 207 2 7   0.000000   7.386993  11.014394  26.896000   # C_3
 208 1 5   0.000000  10.451819   7.668016   0.000000   # H_
 209 1 9   0.000000   9.881616  11.514216  26.896000   # O_1
 210 1 9   0.000000  11.514218   9.881617  26.896000   # O_1
 211 2 10   0.000000   5.999447  11.036222  26.896000   # F_
 212 2 10   0.000000   7.679477  11.743840  25.780961   # F_
 213 2 10   0.000000   7.679477  11.743841   1.115038   # F_
 214 2 10   0.000000   5.630283   1.278928  26.895993   # F_
 215 2 10   0.000000   7.089328   2.410707   1.081413   # F_
 216 2 10   0.000000   7.089337   2.410712  25.814593   # F_
 217 1 9   0.000000   1.933822  23.329590   0.000000   # O_1
 218 1 6   0.000000   3.152223  23.743789   0.000000   # C_2
 219 1 9   0.000000   3.566424  24.962189   0.000000   # O_1
 220 1 8   0.000000   4.209222  22.686789   0.000000   # C_R
 221 1 8   0.000000   3.891921  21.360789   0.000000   # C_R
 222 1 8   0.000000   5.535222  23.004088   0.000000   # C_R
 223 1 8   0.000000   4.827820  20.387188   0.000000   # C_R
 224 1 5   0.000000   2.996221  21.115990   0.000000   # H_
 225 1 8   0.000000   6.508821  22.068187   0.000000   # C_R
 226 2 7   0.000000   6.229372  24.406425   0.000000   # C_3
 227 1 8   0.000000   6.204920  20.691087   0.000000   # C_R
 228 1 8   0.000000   7.243120  19.652886   0.000000   # C_R
 229 1 5   0.000000   4.558920  19.496888   0.000000   # H_
 230 1 8   0.000000   6.939219  18.275787   0.000000   # C_R
 231 1 5   0.000000   7.399122  22.337086   0.000000   # H_
 232 1 8   0.000000   8.620220  19.956785   0.000000   # C_R
 233 1 8   0.000000   7.912818  17.339886   0.000000   # C_R
 234 1 5   0.000000   6.048918  18.006887   0.000000   # H_
 235 1 8   0.000000   9.556119  18.983185   0.000000   # C_R
 236 1 5   0.000000   8.889121  20.847085   0.000000   # H_
 237 1 8   0.000000   9.238818  17.657185   0.000000   # C_R
 238 1 6   0.000000  10.295817  16.600184   0.000000   # C_2
 239 2 7   0.000000   7.386993  15.881606   0.000000   # C_3
 240 1 5   0.000000  10.451819  19.227984   0.000000   # H_
 241 1 9   0.000000   9.881616  15.381784   0.000000   # O_1
 242 1 9   0.000000  11.514218  17.014383   0.000000   # O_1
 243 2 10   0.000000   5.999447  15.859778   0.000000   # F_
 244 2 10   0.000000   7.679477  15.152160   1.115039   # F_
 245 2 10   0.000000   7.679477  15.152159  25.780962   # F_
 246 2 10   0.000000   5.630283  25.617072   0.000007   # F_
 247 2 10   0.000000   7.089328  24.485293  25.814587   # F_
 248 2 10   0.000000   7.089337  24.485288   1.081407   # F_
 249 1 9   0.000000  24.962178  23.329590   0.000000   # O_1
 250 1 6   0.000000  23.743777  23.743789   0.000000   # C_2
 251 1 9   0.000000  23.329576  24.962189   0.000000   # O_1
 252 1 8   0.000000  22.686778  22.686789   0.000000   # C_R
 253 1 8   0.000000  23.004079  21.360789  26.896000   # C_R
 254 1 8   0.000000  21.360778  23.004088   0.000000   # C_R
 255 1 8   0.000000  22.068180  20.387188  26.896000   # C_R
 256 1 5   0.000000  23.899779  21.115990  26.896000   # H_
 257 1 8   0.000000  20.387179  22.068187   0.000000   # C_R
 258 2 7   0.000000  20.666628  24.406425   0.000000   # C_3
 259 1 8   0.000000  20.691080  20.691087   0.000000   # C_R
 260 1 8   0.000000  19.652880  19.652886  26.896000   # C_R
 261 1 5   0.000000  22.337080  19.496888  26.896000   # H_
 262 1 8   0.000000  19.956781  18.275787  26.896000   # C_R
 263 1 5   0.000000  19.496878  22.337086   0.000000   # H_
 264 1 8   0.000000  18.275780  19.956785   0.000000   # C_R
 265 1 8   0.000000  18.983182  17.339886  26.896000   # C_R
 266 1 5   0.000000  20.847082  18.006887  26.896000   # H_
 267 1 8   0.000000  17.339881  18.983185   0.000000   # C_R
 268 1 5   0.000000  18.006879  20.847085   0.000000   # H_
 269 1 8   0.000000  17.657182  17.657185  26.896000   # C_R
 270 1 6   0.000000  16.600183  16.600184  26.896000   # C_2
 271 2 7   0.000000  19.509007  15.881606  26.896000   # C_3
 272 1 5   0.000000  16.444181  19.227984   0.000000   # H_
 273 1 9   0.000000  17.014384  15.381784  26.896000   # O_1
 274 1 9   0.000000  15.381782  17.014383   0.000000   # O_1
 275 2 10   0.000000  20.896553  15.859778  26.896000   # F_
 276 2 10   0.000000  19.216523  15.152160  25.780961   # F_
 277 2 10   0.000000  19.216523  15.152159   1.115038   # F_
 278 2 10   0.000000  21.265717  25.617072  26.895993   # F_
 279 2 10   0.000000  19.806672  24.485293   1.081413   # F_
 280 2 10   0.000000  19.806663  24.485288  25.814593   # F_
 281 1 9   0.000000  24.962178   3.566410   0.000000   # O_1
 282 1 6   0.000000  23.743777   3.152211   0.000000   # C_2
 283 1 9   0.000000  23.329576   1.933811   0.000000   # O_1
 284 1 8   0.000000  22.686778   4.209211   0.000000   # C_R
 285 1 8   0.000000  23.004079   5.535211   0.000000   # C_R
 286 1 8   0.000000  21.360778   3.891912   0.000000   # C_R
 287 1 8   0.000000  22.068180   6.508812   0.000000   # C_R
 288 1 5   0.000000  23.899779   5.780010   0.000000   # H_
 289 1 8   0.000000  20.387179   4.827813   0.000000   # C_R
 290 2 7   0.000000  20.666628   2.489575   0.000000   # C_3
 291 1 8   0.000000  20.691080   6.204913   0.000000   # C_R
 292 1 8   0.000000  19.652880   7.243114   0.000000   # C_R
 293 1 5   0.000000  22.337080   7.399112   0.000000   # H_
 294 1 8   0.000000  19.956781   8.620213   0.000000   # C_R
 295 1 5   0.000000  19.496878   4.558914   0.000000   # H_
 296 1 8   0.000000  18.275780   6.939215   0.000000   # C_R
 297 1 8   0.000000  18.983182   9.556114   0.000000   # C_R
 298 1 5   0.000000  20.847082   8.889113   0.000000   # H_
 299 1 8   0.000000  17.339881   7.912815   0.000000   # C_R
 300 1 5   0.000000  18.006879   6.048915   0.000000   # H_
 301 1 8   0.000000  17.657182   9.238815   0.000000   # C_R
 302 1 6   0.000000  16.600183  10.295816   0.000000   # C_2
 303 2 7   0.000000  19.509007  11.014394   0.000000   # C_3
 304 1 5   0.000000  16.444181   7.668016   0.000000   # H_
 305 1 9   0.000000  17.014384  11.514216   0.000000   # O_1
 306 1 9   0.000000  15.381782   9.881617   0.000000   # O_1
 307 2 10   0.000000  20.896553  11.036222   0.000000   # F_
 308 2 10   0.000000  19.216523  11.743840   1.115039   # F_
 309 2 10   0.000000  19.216523  11.743841  25.780962   # F_
 310 2 10   0.000000  21.265717   1.278928   0.000007   # F_
 311 2 10   0.000000  19.806672   2.410707  25.814587   # F_
 312 2 10   0.000000  19.806663   2.410712   1.081407   # F_
 313 1 9   0.000000   0.000000   1.933822   3.566410   # O_1
 314 1 6   0.000000   0.000000   3.152223   3.152211   # C_2
 315 1 9   0.000000   0.000000   3.566424   1.933811   # O_1
 316 1 8   0.000000   0.000000   4.209222   4.209211   # C_R
 317 1 8   0.000000   0.000000   3.891921   5.535211   # C_R
 318 1 8   0.000000   0.000000   5.535222   3.891912   # C_R
 319 1 8   0.000000   0.000000   4.827820   6.508812   # C_R
 320 1 5   0.000000   0.000000   2.996221   5.780010   # H_
 321 1 8   0.000000   0.000000   6.508821   4.827813   # C_R
 322 2 7   0.000000   0.000000   6.229372   2.489575   # C_3
 323 1 8   0.000000   0.000000   6.204920   6.204913   # C_R
 324 1 8   0.000000   0.000000   7.243120   7.243114   # C_R
 325 1 5   0.000000   0.000000   4.558920   7.399112   # H_
 326 1 8   0.000000   0.000000   6.939219   8.620213   # C_R
 327 1 5   0.000000   0.000000   7.399122   4.558914   # H_
 328 1 8   0.000000   0.000000   8.620220   6.939215   # C_R
 329 1 8   0.000000   0.000000   7.912818   9.556114   # C_R
 330 1 5   0.000000   0.000000   6.048918   8.889113   # H_
 331 1 8   0.000000   0.000000   9.556119   7.912815   # C_R
 332 1 5   0.000000   0.000000   8.889121   6.048915   # H_
 333 1 8   0.000000   0.000000   9.238818   9.238815   # C_R
 334 1 6   0.000000   0.000000  10.295817  10.295816   # C_2
 335 2 7   0.000000   0.000000   7.386993  11.014394   # C_3
 336 1 5   0.000000   0.000000  10.451819   7.668016   # H_
 337 1 9   0.000000   0.000000   9.881616  11.514216   # O_1
 338 1 9   0.000000   0.000000  11.514218   9.881617   # O_1
 339 2 10   0.000000   0.000000   5.999447  11.036222   # F_
 340 2 10   0.000000  25.780961   7.679477  11.743840   # F_
 341 2 10   0.000000   1.115038   7.679477  11.743841   # F_
 342 2 10   0.000000  26.895993   5.630283   1.278928   # F_
 343 2 10   0.000000   1.081413   7.089328   2.410707   # F_
 344 2 10   0.000000  25.814593   7.089337   2.410712   # F_
 345 1 9   0.000000   0.000000   1.933822  23.329590   # O_1
 346 1 6   0.000000   0.000000   3.152223  23.743789   # C_2
 347 1 9   0.000000   0.000000   3.566424  24.962189   # O_1
 348 1 8   0.000000   0.000000   4.209222  22.686789   # C_R
 349 1 8   0.000000   0.000000   3.891921  21.360789   # C_R
 350 1 8   0.000000   0.000000   5.535222  23.004088   # C_R
 351 1 8   0.000000   0.000000   4.827820  20.387188   # C_R
 352 1 5   0.000000   0.000000   2.996221  21.115990   # H_
 353 1 8   0.000000   0.000000   6.508821  22.068187   # C_R
 354 2 7   0.000000   0.000000   6.229372  24.406425   # C_3
 355 1 8   0.000000   0.000000   6.204920  20.691087   # C_R
 356 1 8   0.000000   0.000000   7.243120  19.652886   # C_R
 357 1 5   0.000000   0.000000   4.558920  19.496888   # H_
 358 1 8   0.000000   0.000000   6.939219  18.275787   # C_R
 359 1 5   0.000000   0.000000   7.399122  22.337086   # H_
 360 1 8   0.000000   0.000000   8.620220  19.956785   # C_R
 361 1 8   0.000000   0.000000   7.912818  17.339886   # C_R
 362 1 5   0.000000   0.000000   6.048918  18.006887   # H_
 363 1 8   0.000000   0.000000   9.556119  18.983185   # C_R
 364 1 5   0.000000   0.000000   8.889121  20.847085   # H_
 365 1 8   0.000000   0.000000   9.238818  17.657185   # C_R
 366 1 6   0.000000   0.000000  10.295817  16.600184   # C_2
 367 2 7   0.000000   0.000000   7.386993  15.881606   # C_3
 368 1 5   0.000000   0.000000  10.451819  19.227984   # H_
 369 1 9   0.000000   0.000000   9.881616  15.381784   # O_1
 370 1 9   0.000000   0.000000  11.514218  17.014383   # O_1
 371 2 10   0.000000   0.000000   5.999447  15.859778   # F_
 372 2 10   0.000000   1.115039   7.679477  15.152160   # F_
 373 2 10   0.000000  25.780962   7.679477  15.152159   # F_
 374 2 10   0.000000   0.000007   5.630283  25.617072   # F_
 375 2 10   0.000000  25.814587   7.089328  24.485293   # F_
 376 2 10   0.000000   1.081407   7.089337  24.485288   # F_
 377 1 9   0.000000   0.000000  24.962178  23.329590   # O_1
 378 1 6   0.000000   0.000000  23.743777  23.743789   # C_2
 379 1 9   0.000000   0.000000  23.329576  24.962189   # O_1
 380 1 8   0.000000   0.000000  22.686778  22.686789   # C_R
 381 1 8   0.000000  26.896000  23.004079  21.360789   # C_R
 382 1 8   0.000000   0.000000  21.360778  23.004088   # C_R
 383 1 8   0.000000  26.896000  22.068180  20.387188   # C_R
 384 1 5   0.000000  26.896000  23.899779  21.115990   # H_
 385 1 8   0.000000   0.000000  20.387179  22.068187   # C_R
 386 2 7   0.000000   0.000000  20.666628  24.406425   # C_3
 387 1 8   0.000000   0.000000  20.691080  20.691087   # C_R
 388 1 8   0.000000  26.896000  19.652880  19.652886   # C_R
 389 1 5   0.000000  26.896000  22.337080  19.496888   # H_
 390 1 8   0.000000  26.896000  19.956781  18.275787   # C_R
 391 1 5   0.000000   0.000000  19.496878  22.337086   # H_
 392 1 8   0.000000   0.000000  18.275780  19.956785   # C_R
 393 1 8   0.000000  26.896000  18.983182  17.339886   # C_R
 394 1 5   0.000000  26.896000  20.847082  18.006887   # H_
 395 1 8   0.000000   0.000000  17.339881  18.983185   # C_R
 396 1 5   0.000000   0.000000  18.006879  20.847085   # H_
 397 1 8   0.000000  26.896000  17.657182  17.657185   # C_R
 398 1 6   0.000000  26.896000  16.600183  16.600184   # C_2
 399 2 7   0.000000  26.896000  19.509007  15.881606   # C_3
 400 1 5   0.000000   0.000000  16.444181  19.227984   # H_
 401 1 9   0.000000  26.896000  17.014384  15.381784   # O_1
 402 1 9   0.000000   0.000000  15.381782  17.014383   # O_1
 403 2 10   0.000000  26.896000  20.896553  15.859778   # F_
 404 2 10   0.000000  25.780961  19.216523  15.152160   # F_
 405 2 10   0.000000   1.115038  19.216523  15.152159   # F_
 406 2 10   0.000000  26.895993  21.265717  25.617072   # F_
 407 2 10   0.000000   1.081413  19.806672  24.485293   # F_
 408 2 10   0.000000  25.814593  19.806663  24.485288   # F_
 409 1 9   0.000000   0.000000  24.962178   3.566410   # O_1
 410 1 6   0.000000  26.896000  23.743777   3.152211   # C_2
 411 1 9   0.000000  26.896000  23.329576   1.933811   # O_1
 412 1 8   0.000000  26.896000  22.686778   4.209211   # C_R
 413 1 8   0.000000   0.000000  23.004079   5.535211   # C_R
 414 1 8   0.000000  26.896000  21.360778   3.891912   # C_R
 415 1 8   0.000000   0.000000  22.068180   6.508812   # C_R
 416 1 5   0.000000   0.000000  23.899779   5.780010   # H_
 417 1 8   0.000000  26.896000  20.387179   4.827813   # C_R
 418 2 7   0.000000  26.896000  20.666628   2.489575   # C_3
 419 1 8   0.000000  26.896000  20.691080   6.204913   # C_R
 420 1 8   0.000000   0.000000  19.652880   7.243114   # C_R
 421 1 5   0.000000   0.000000  22.337080   7.399112   # H_
 422 1 8   0.000000   0.000000  19.956781   8.620213   # C_R
 423 1 5   0.000000  26.896000  19.496878   4.558914   # H_
 424 1 8   0.000000  26.896000  18.275780   6.939215   # C_R
 425 1 8   0.000000   0.000000  18.983182   9.556114   # C_R
 426 1 5   0.000000   0.000000  20.847082   8.889113   # H_
 427 1 8   0.000000  26.896000  17.339881   7.912815   # C_R
 428 1 5   0.000000  26.896000  18.006879   6.048915   # H_
 429 1 8   0.000000   0.000000  17.657182   9.238815   # C_R
 430 1 6   0.000000   0.000000  16.600183  10.295816   # C_2
 431 2 7   0.000000   0.000000  19.509007  11.014394   # C_3
 432 1 5   0.000000  26.896000  16.444181   7.668016   # H_
 433 1 9   0.000000   0.000000  17.014384  11.514216   # O_1
 434 1 9   0.000000   0.000000  15.381782   9.881617   # O_1
 435 2 10   0.000000   0.000000  20.896553  11.036222   # F_
 436 2 10   0.000000   1.115039  19.216523  11.743840   # F_
 437 2 10   0.000000  25.780962  19.216523  11.743841   # F_
 438 2 10   0.000000   0.000007  21.265717   1.278928   # F_
 439 2 10   0.000000  25.814587  19.806672   2.410707   # F_
 440 2 10   0.000000   1.081407  19.806663   2.410712   # F_
 441 1 9   0.000000   3.566410  13.448000  15.381822   # O_1
 442 1 6   0.000000   3.152211  13.448000  16.600223   # C_2
 443 1 9   0.000000   1.933811  13.448000  17.014424   # O_1
 444 1 8   0.000000   4.209211  13.448000  17.657222   # C_R
 445 1 8   0.000000   5.535211  13.448000  17.339921   # C_R
 446 1 8   0.000000   3.891912  13.448000  18.983222   # C_R
 447 1 8   0.000000   6.508812  13.448000  18.275820   # C_R
 448 1 5   0.000000   5.780010  13.448000  16.444221   # H_
 449 1 8   0.000000   4.827813  13.448000  19.956821   # C_R
 450 2 7   0.000000   2.489575  13.448000  19.677372   # C_3
 451 1 8   0.000000   6.204913  13.448000  19.652920   # C_R
 452 1 8   0.000000   7.243114  13.448000  20.691120   # C_R
 453 1 5   0.000000   7.399112  13.448000  18.006920   # H_
 454 1 8   0.000000   8.620213  13.448000  20.387219   # C_R
 455 1 5   0.000000   4.558914  13.448000  20.847122   # H_
 456 1 8   0.000000   6.939215  13.448000  22.068220   # C_R
 457 1 8   0.000000   9.556114  13.448000  21.360818   # C_R
 458 1 5   0.000000   8.889113  13.448000  19.496918   # H_
 459 1 8   0.000000   7.912815  13.448000  23.004119   # C_R
 460 1 5   0.000000   6.048915  13.448000  22.337121   # H_
 461 1 8   0.000000   9.238815  13.448000  22.686818   # C_R
 462 1 6   0.000000  10.295816  13.448000  23.743817   # C_2
 463 2 7   0.000000  11.014394  13.448000  20.834993   # C_3
 464 1 5   0.000000   7.668016  13.448000  23.899819   # H_
 465 1 9   0.000000  11.514216  13.448000  23.329616   # O_1
 466 1 9   0.000000   9.881617  13.448000  24.962218   # O_1
 467 2 10   0.000000  11.036222  13.448000  19.447447   # F_
 468 2 10   0.000000  11.743840  12.332961  21.127477   # F_
 469 2 10   0.000000  11.743841  14.563038  21.127477   # F_
 470 2 10   0.000000   1.278928  13.447993  19.078283   # F_
 471 2 10   0.000000   2.410707  14.529413  20.537328   # F_
 472 2 10   0.000000   2.410712  12.366593  20.537337   # F_
 473 1 9   0.000000  23.329590  13.448000  15.381822   # O_1