 (written by mofun)

1064 atoms
408 bonds
792 angles
1080 dihedrals
0 impropers

10 atom types
4 bond types
7 angle types
11 dihedral types
   0.000000  26.896000 xlo xhi
   0.000000  26.896000 ylo yhi
   0.000000  26.896000 zlo zhi

Masses

 1 91.2240   # Zr3+4
 2 15.9994   # O_3
 3 12.0107   # C_3
 4 1.0079   # H_
 5 1.0079   # H_
 6 12.0107   # C_2
 7 12.0107   # C_3
 8 12.0107   # C_R
 9 15.9994   # O_1
 10 15.9994   # O_3

Pair Coeffs

 1   0.069000   2.783168 # Zr3+4
 2   0.060000   3.118146 # O_3
 3   0.105000   3.430851 # C_3
 4   0.044000   2.571134 # H_
 5 0.044000 2.571134   # H_
 6 0.105000 3.430851   # C_2
 7 0.105000 3.430851   # C_3
 8 0.105000 3.430851   # C_R
 9 0.060000 3.118146   # O_1
 10 0.060000 3.118146   # O_3

Bond Coeffs

 1 572.510195 1.366311   # C_R O_3
 2 539.248552 1.393845   # C_3 O_3
 3 349.795899 1.514000   # C_3 C_3
 4 331.069389 1.109401   # C_3 H_

Angle Coeffs

 1 cosine/periodic  271.563462  -1  3   # C_R C_R O_3
 2 fourier  320.948910  0.300235  0.267331  0.266745   # C_3 O_3 C_R
 3 fourier  290.032745  0.343737  0.374972  0.281246   # C_3 C_3 O_3
 4 fourier  165.777838  0.343737  0.374972  0.281246   # H_ C_3 O_3
 5 fourier  117.318683  0.343737  0.374972  0.281246   # C_3 C_3 H_
 6 fourier  75.498766  0.343737  0.374972  0.281246   # H_ C_3 H_
 7 fourier  214.211821  0.343737  0.374972  0.281246   # C_3 C_3 C_3

Dihedral Coeffs

 1 harmonic 3.368555 -1 2   # C_R C_R C_R O_3 M=4
 2 harmonic 3.368555 -1 2   # H_ C_R C_R O_3 M=4
 3 harmonic 3.368555 -1 2   # C_2 C_R C_R O_3 M=4
 4 harmonic 2.500000 1 2   # C_3 O_3 C_R C_R M=2
 5 harmonic 0.032550 1 3   # C_3 C_3 O_3 C_R M=3
 6 harmonic 0.032550 1 3   # C_R O_3 C_3 H_ M=3
 7 harmonic 0.117722 1 3   # H_ C_3 C_3 O_3 M=9
 8 harmonic 0.117722 1 3   # C_3 C_3 C_3 O_3 M=9
 9 harmonic 0.117722 1 3   # H_ C_3 C_3 H_ M=9
 10 harmonic 0.117722 1 3   # C_3 C_3 C_3 H_ M=9
 11 harmonic 0.117722 1 3   # C_3 C_3 C_3 C_3 M=9

Atoms

 1 1 1   0.000000   2.475508   0.000000   0.000000   # Zr3+4
 2 1 1   0.000000  24.420492   0.000000   0.000000   # Zr3+4
 3 1 1   0.000000   0.000000   2.475508   0.000000   # Zr3+4
 4 1 1   0.000000   0.000000  24.420492   0.000000   # Zr3+4
 5 1 1   0.000000   0.000000   0.000000   2.475508   # Zr3+4
 6 1 1   0.000000   0.000000   0.000000  24.420492   # Zr3+4
 7 1 1   0.000000   2.475508  13.448000  13.448000   # Zr3+4
 8 1 1   0.000000  24.420492  13.448000  13.448000   # Zr3+4
 9 1 1   0.000000   0.000000  15.923508  13.448000   # Zr3+4
 10 1 1   0.000000   0.000000  10.972492  13.448000   # Zr3+4
 11 1 1   0.000000   0.000000  13.448000  15.923508   # Zr3+4
 12 1 1   0.000000   0.000000  13.448000  10.972492   # Zr3+4
 13 1 1   0.000000  15.923508   0.000000  13.448000   # Zr3+4
 14 1 1   0.000000  10.972492   0.000000  13.448000   # Zr3+4
 15 1 1   0.000000  13.448000   2.475508  13.448000   # Zr3+4
 16 1 1   0.000000  13.448000  24.420492  13.448000   # Zr3+4
 17 1 1   0.000000  13.448000   0.000000  15.923508   # Zr3+4
 18 1 1   0.000000  13.448000   0.000000  10.972492   # Zr3+4
 19 1 1   0.000000  15.923508  13.448000   0.000000   # Zr3+4
 20 1 1   0.000000  10.972492  13.448000   0.000000   # Zr3+4
 21 1 1   0.000000  13.448000  15.923508   0.000000   # Zr3+4
 22 1 1   0.000000  13.448000  10.972492   0.000000   # Zr3+4
 23 1 1   0.000000  13.448000  13.448000   2.475508   # Zr3+4
 24 1 1   0.000000  13.448000  13.448000  24.420492   # Zr3+4
 25 1 2   0.000000   1.221078   1.221078   1.221078   # O_3
 26 1 2   0.000000  25.674922  25.674922   1.221078   # O_3
 27 1 2   0.000000  25.674922   1.221078  25.674922   # O_3
 28 1 2   0.000000   1.221078  25.674922  25.674922   # O_3
 29 1 2   0.000000   1.221078   1.221078  25.674922   # O_3
 30 1 2   0.000000  25.674922  25.674922  25.674922   # O_3
 31 1 2   0.000000   1.221078  25.674922   1.221078   # O_3
 32 1 2   0.000000  25.674922   1.221078   1.221078   # O_3
 33 1 2   0.000000   1.221078  14.669078  14.669078   # O_3
 34 1 2   0.000000  25.674922  12.226922  14.669078   # O_3
 35 1 2   0.000000  25.674922  14.669078  12.226922   # O_3
 36 1 2   0.000000   1.221078  12.226922  12.226922   # O_3
 37 1 2   0.000000   1.221078  14.669078  12.226922   # O_3
 38 1 2   0.000000  25.674922  12.226922  12.226922   # O_3
 39 1 2   0.000000   1.221078  12.226922  14.669078   # O_3
 40 1 2   0.000000  25.674922  14.669078  14.669078   # O_3
 41 1 2   0.000000  14.669078   1.221078  14.669078   # O_3
 42 1 2   0.000000  12.226922  25.674922  14.669078   # O_3
 43 1 2   0.000000  12.226922   1.221078  12.226922   # O_3
 44 1 2   0.000000  14.669078  25.674922  12.226922   # O_3
 45 1 2   0.000000  14.669078   1.221078  12.226922   # O_3
 46 1 2   0.000000  12.226922  25.674922  12.226922   # O_3
 47 1 2   0.000000  14.669078  25.674922  14.669078   # O_3
 48 1 2   0.000000  12.226922   1.221078  14.669078   # O_3
 49 1 2   0.000000  14.669078  14.669078   1.221078   # O_3
 50 1 2   0.000000  12.226922  12.226922   1.221078   # O_3
 51 1 2   0.000000  12.226922  14.669078  25.674922   # O_3
 52 1 2   0.000000  14.669078  12.226922  25.674922   # O_3
 53 1 2   0.000000  14.669078  14.669078  25.674922   # O_3
 54 1 2   0.000000  12.226922  12.226922  25.674922   # O_3
 55 1 2   0.000000  14.669078  12.226922   1.221078   # O_3
 56 1 2   0.000000  12.226922  14.669078   1.221078   # O_3
 57 1 9   0.000000   3.566410   0.000000   1.933822   # O_1
 58 1 6   0.000000   3.152211   0.000000   3.152223   # C_2
 59 1 9   0.000000   1.933811  26.896000   3.566424   # O_1
 60 1 8   0.000000   4.209211   0.000000   4.209222   # C_R
 61 1 8   0.000000   5.535211   0.000000   3.891921   # C_R
 62 1 8   0.000000   3.891912   0.000000   5.535222   # C_R
 63 1 8   0.000000   6.508812   0.000000   4.827820   # C_R
 64 1 5   0.000000   5.780010  26.896000   2.996221   # H_
 65 1 8   0.000000   4.827813  26.896000   6.508821   # C_R
 66 1 5   0.000000   2.996212  26.896000   5.780023   # H_
 67 1 8   0.000000   6.204913   0.000000   6.204920   # C_R
 68 1 8   0.000000   7.243114  26.896000   7.243120   # C_R
 69 1 5   0.000000   7.399112   0.000000   4.558920   # H_
 70 1 8   0.000000   8.620213   0.000000   6.939219   # C_R
 71 1 5   0.000000   4.558914   0.000000   7.399122   # H_
 72 1 8   0.000000   6.939215   0.000000   8.620220   # C_R
 73 1 8   0.000000   9.556114   0.000000   7.912818   # C_R
 74 1 5   0.000000   8.889113  26.896000   6.048918   # H_
 75 1 8   0.000000   7.912815   0.000000   9.556119   # C_R
 76 1 5   0.000000   6.048915   0.000000   8.889121   # H_
 77 1 8   0.000000   9.238815  26.896000   9.238818   # C_R
 78 1 6   0.000000  10.295816  26.896000  10.295817   # C_2
 79 2 10   0.000000  10.888596  26.893567   7.537996   # O_3
 80 1 5   0.000000   7.668016   0.000000  10.451819   # H_
 81 1 9   0.000000  11.514216   0.000000   9.881616   # O_1
 82 1 9   0.000000   9.881617   0.000000  11.514218   # O_1
 83 2 7   0.000000  11.261813   0.004037   6.164530   # C_3
 84 2 7   0.000000  12.785025   0.004544   6.062218   # C_3
 85 2 5   0.000000  10.873892   0.905724   5.674704   # H_
 86 2 5   0.000000  10.874132  26.003187   5.666124   # H_
 87 2 5   0.000000  13.187069   0.876633   6.592069   # H_
 88 2 7   0.000000  13.229836   0.015953   4.599711   # C_3
 89 2 5   0.000000  13.186590  26.019538   6.578085   # H_
 90 2 5   0.000000  12.818283   0.901611   4.099532   # H_
 91 2 5   0.000000  12.819660  26.034099   4.085531   # H_
 92 2 7   0.000000  14.751175   0.018436   4.467460   # C_3
 93 2 5   0.000000  15.168652   0.895151   4.975428   # H_
 94 2 7   0.000000  15.177123   0.036478   3.007280   # C_3
 95 2 5   0.000000  15.169241  26.025502   4.953922   # H_
 96 2 5   0.000000  14.799105   0.929910   2.499549   # H_
 97 2 5   0.000000  14.799702  26.051984   2.477390   # H_
 98 2 5   0.000000  16.268682   0.037984   2.929555   # H_
 99 1 9   0.000000  23.329590   0.000000   1.933822   # O_1
 100 1 6   0.000000  23.743789   0.000000   3.152223   # C_2
 101 1 9   0.000000  24.962189   0.000000   3.566424   # O_1
 102 1 8   0.000000  22.686789   0.000000   4.209222   # C_R
 103 1 8   0.000000  21.360789  26.896000   3.891921   # C_R
 104 1 8   0.000000  23.004088   0.000000   5.535222   # C_R
 105 1 8   0.000000  20.387188  26.896000   4.827820   # C_R
 106 1 5   0.000000  21.115990  26.896000   2.996221   # H_
 107 1 8   0.000000  22.068187   0.000000   6.508821   # C_R
 108 1 5   0.000000  23.899788   0.000000   5.780023   # H_
 109 1 8   0.000000  20.691087   0.000000   6.204920   # C_R
 110 1 8   0.000000  19.652886  26.896000   7.243120   # C_R
 111 1 5   0.000000  19.496888  26.896000   4.558920   # H_
 112 1 8   0.000000  18.275787  26.896000   6.939219   # C_R
 113 1 5   0.000000  22.337086   0.000000   7.399122   # H_
 114 1 8   0.000000  19.956785   0.000000   8.620220   # C_R
 115 1 8   0.000000  17.339886  26.896000   7.912818   # C_R
 116 1 5   0.000000  18.006887  26.896000   6.048918   # H_
 117 1 8   0.000000  18.983185   0.000000   9.556119   # C_R
 118 1 5   0.000000  20.847085   0.000000   8.889121   # H_
 119 1 8   0.000000  17.657185  26.896000   9.238818   # C_R
 120 1 6   0.000000  16.600184  26.896000  10.295817   # C_2
 121 2 10   0.000000  16.007404   0.002433   7.537996   # O_3
 122 1 5   0.000000  19.227984   0.000000  10.451819   # H_
 123 1 9   0.000000  15.381784  26.896000   9.881616   # O_1
 124 1 9   0.000000  17.014383  26.896000  11.514218   # O_1
 125 2 7   0.000000  15.634187  26.891963   6.164530   # C_3
 126 2 7   0.000000  14.110975  26.891456   6.062218   # C_3
 127 2 5   0.000000  16.022108  25.990276   5.674704   # H_
 128 2 5   0.000000  16.021868   0.892813   5.666124   # H_
 129 2 5   0.000000  13.708931  26.019367   6.592069   # H_
 130 2 7   0.000000  13.666164  26.880047   4.599711   # C_3
 131 2 5   0.000000  13.709410   0.876462   6.578085   # H_
 132 2 5   0.000000  14.077717  25.994389   4.099532   # H_
 133 2 5   0.000000  14.076340   0.861901   4.085531   # H_
 134 2 7   0.000000  12.144825  26.877564   4.467460   # C_3
 135 2 5   0.000000  11.727348  26.000849   4.975428   # H_
 136 2 7   0.000000  11.718877  26.859522   3.007280   # C_3
 137 2 5   0.000000  11.726759   0.870498   4.953922   # H_
 138 2 5   0.000000  12.096895  25.966090   2.499549   # H_
 139 2 5   0.000000  12.096298   0.844016   2.477390   # H_
 140 2 5   0.000000  10.627318  26.858016   2.929555   # H_
 141 1 9   0.000000  23.329590   0.000000  24.962178   # O_1
 142 1 6   0.000000  23.743789   0.000000  23.743777   # C_2
 143 1 9   0.000000  24.962189   0.000000  23.329576   # O_1
 144 1 8   0.000000  22.686789   0.000000  22.686778   # C_R
 145 1 8   0.000000  21.360789  26.896000  23.004079   # C_R
 146 1 8   0.000000  23.004088   0.000000  21.360778   # C_R
 147 1 8   0.000000  20.387188  26.896000  22.068180   # C_R
 148 1 5   0.000000  21.115990  26.896000  23.899779   # H_
 149 1 8   0.000000  22.068187   0.000000  20.387179   # C_R
 150 1 5   0.000000  23.899788   0.000000  21.115977   # H_
 151 1 8   0.000000  20.691087   0.000000  20.691080   # C_R
 152 1 8   0.000000  19.652886  26.896000  19.652880   # C_R
 153 1 5   0.000000  19.496888  26.896000  22.337080   # H_
 154 1 8   0.000000  18.275787  26.896000  19.956781   # C_R
 155 1 5   0.000000  22.337086   0.000000  19.496878   # H_
 156 1 8   0.000000  19.956785   0.000000  18.275780   # C_R
 157 1 8   0.000000  17.339886  26.896000  18.983182   # C_R
 158 1 5   0.000000  18.006887  26.896000  20.847082   # H_
 159 1 8   0.000000  18.983185   0.000000  17.339881   # C_R
 160 1 5   0.000000  20.847085   0.000000  18.006879   # H_
 161 1 8   0.000000  17.657185  26.896000  17.657182   # C_R
 162 1 6   0.000000  16.600184  26.896000  16.600183   # C_2
 163 2 10   0.000000  16.007404  26.893567  19.358004   # O_3
 164 1 5   0.000000  19.227984   0.000000  16.444181   # H_
 165 1 9   0.000000  15.381784  26.896000  17.014384   # O_1
 166 1 9   0.000000  17.014383  26.896000  15.381782   # O_1
 167 2 7   0.000000  15.634187   0.004037  20.731470   # C_3
 168 2 7   0.000000  14.110975   0.004544  20.833782   # C_3
 169 2 5   0.000000  16.022108   0.905724  21.221296   # H_
 170 2 5   0.000000  16.021868  26.003187  21.229876   # H_
 171 2 5   0.000000  13.708931   0.876633  20.303931   # H_
 172 2 7   0.000000  13.666164   0.015953  22.296289   # C_3
 173 2 5   0.000000  13.709410  26.019538  20.317915   # H_
 174 2 5   0.000000  14.077717   0.901611  22.796468   # H_
 175 2 5   0.000000  14.076340  26.034099  22.810469   # H_
 176 2 7   0.000000  12.144825   0.018436  22.428540   # C_3
 177 2 5   0.000000  11.727348   0.895151  21.920572   # H_
 178 2 7   0.000000  11.718877   0.036478  23.888720   # C_3
 179 2 5   0.000000  11.726759  26.025502  21.942078   # H_
 180 2 5   0.000000  12.096895   0.929910  24.396451   # H_
 181 2 5   0.000000  12.096298  26.051984  24.418610   # H_
 182 2 5   0.000000  10.627318   0.037984  23.966445   # H_
 183 1 9   0.000000   3.566410   0.000000  24.962178   # O_1
 184 1 6   0.000000   3.152211   0.000000  23.743777   # C_2
 185 1 9   0.000000   1.933811   0.000000  23.329576   # O_1
 186 1 8   0.000000   4.209211   0.000000  22.686778   # C_R
 187 1 8   0.000000   5.535211   0.000000  23.004079   # C_R
 188 1 8   0.000000   3.891912   0.000000  21.360778   # C_R
 189 1 8   0.000000   6.508812   0.000000  22.068180   # C_R
 190 1 5   0.000000   5.780010   0.000000  23.899779   # H_
 191 1 8   0.000000   4.827813   0.000000  20.387179   # C_R
 192 1 5   0.000000   2.996212   0.000000  21.115977   # H_
 193 1 8   0.000000   6.204913   0.000000  20.691080   # C_R
 194 1 8   0.000000   7.243114   0.000000  19.652880   # C_R
 195 1 5   0.000000   7.399112   0.000000  22.337080   # H_
 196 1 8   0.000000   8.620213   0.000000  19.956781   # C_R
 197 1 5   0.000000   4.558914   0.000000  19.496878   # H_
 198 1 8   0.000000   6.939215   0.000000  18.275780   # C_R
 199 1 8   0.000000   9.556114   0.000000  18.983182   # C_R
 200 1 5   0.000000   8.889113   0.000000  20.847082   # H_
 201 1 8   0.000000   7.912815   0.000000  17.339881   # C_R
 202 1 5   0.000000   6.048915   0.000000  18.006879   # H_
 203 1 8   0.000000   9.238815   0.000000  17.657182   # C_R
 204 1 6   0.000000  10.295816   0.000000  16.600183   # C_2
 205 2 10   0.000000  10.888596   0.002433  19.358004   # O_3
 206 1 5   0.000000   7.668016   0.000000  16.444181   # H_
 207 1 9   0.000000  11.514216   0.000000  17.014384   # O_1
 208 1 9   0.000000   9.881617   0.000000  15.381782   # O_1
 209 2 7   0.000000  11.261813  26.891963  20.731470   # C_3
 210 2 7   0.000000  12.785025  26.891456  20.833782   # C_3
 211 2 5   0.000000  10.873892  25.990276  21.221296   # H_
 212 2 5   0.000000  10.874132   0.892813  21.229876   # H_
 213 2 5   0.000000  13.187069  26.019367  20.303931   # H_
 214 2 7   0.000000  13.229836  26.880047  22.296289   # C_3
 215 2 5   0.000000  13.186590   0.876462  20.317915   # H_
 216 2 5   0.000000  12.818283  25.994389  22.796468   # H_
 217 2 5   0.000000  12.819660   0.861901  22.810469   # H_
 218 2 7   0.000000  14.751175  26.877564  22.428540   # C_3
 219 2 5   0.000000  15.168652  26.000849  21.920572   # H_
 220 2 7   0.000000  15.177123  26.859522  23.888720   # C_3
 221 2 5   0.000000  15.169241   0.870498  21.942078   # H_
 222 2 5   0.000000  14.799105  25.966090  24.396451   # H_
 223 2 5   0.000000  14.799702   0.844016  24.418610   # H_
 224 2 5   0.000000  16.268682  26.858016  23.966445   # H_
 225 1 9   0.000000   1.933822   3.566410   0.000000   # O_1
 226 1 6   0.000000   3.152223   3.152211   0.000000   # C_2
 227 1 9   0.000000   3.566424   1.933811   0.000000   # O_1
 228 1 8   0.000000   4.209222   4.209211   0.000000   # C_R
 229 1 8   0.000000   3.891921   5.535211  26.896000   # C_R
 230 1 8   0.000000   5.535222   3.891912   0.000000   # C_R
 231 1 8   0.000000   4.827820   6.508812  26.896000   # C_R
 232 1 5   0.000000   2.996221   5.780010  26.896000   # H_
 233 1 8   0.000000   6.508821   4.827813   0.000000   # C_R
 234 1 5   0.000000   5.780023   2.996212   0.000000   # H_
 235 1 8   0.000000   6.204920   6.204913   0.000000   # C_R
 236 1 8   0.000000   7.243120   7.243114  26.896000   # C_R
 237 1 5   0.000000   4.558920   7.399112  26.896000   # H_
 238 1 8   0.000000   6.939219   8.620213  26.896000   # C_R
 239 1 5   0.000000   7.399122   4.558914   0.000000   # H_
 240 1 8   0.000000   8.620220   6.939215   0.000000   # C_R
 241 1 8   0.000000   7.912818   9.556114  26.896000   # C_R
 242 1 5   0.000000   6.048918   8.889113  26.896000   # H_
 243 1 8   0.000000   9.556119   7.912815   0.000000   # C_R
 244 1 5   0.000000   8.889121   6.048915   0.000000   # H_
 245 1 8   0.000000   9.238818   9.238815  26.896000   # C_R
 246 1 6   0.000000  10.295817  10.295816  26.896000   # C_2
 247 2 10   0.000000   7.537996  10.888596  26.893567   # O_3
 248 1 5   0.000000  10.451819   7.668016   0.000000   # H_
 249 1 9   0.000000   9.881616  11.514216  26.896000   # O_1
 250 1 9   0.000000  11.514218   9.881617  26.896000   # O_1
 251 2 7   0.000000   6.164530  11.261813   0.004037   # C_3
 252 2 7   0.000000   6.062218  12.785025   0.004544   # C_3
 253 2 5   0.000000   5.674704  10.873892   0.905724   # H_
 254 2 5   0.000000   5.666124  10.874132  26.003187   # H_
 255 2 5   0.000000   6.592069  13.187069   0.876633   # H_
 256 2 7   0.000000   4.599711  13.229836   0.015953   # C_3
 257 2 5   0.000000   6.578085  13.186590  26.019538   # H_
 258 2 5   0.000000   4.099532  12.818283   0.901611   # H_
 259 2 5   0.000000   4.085531  12.819660  26.034099   # H_
 260 2 7   0.000000   4.467460  14.751175   0.018436   # C_3
 261 2 5   0.000000   4.975428  15.168652   0.895151   # H_
 262 2 7   0.000000   3.007280  15.177123   0.036478   # C_3
 263 2 5   0.000000   4.953922  15.169241  26.025502   # H_
 264 2 5   0.000000   2.499549  14.799105   0.929910   # H_
 265 2 5   0.000000   2.477390  14.799702  26.051984   # H_
 266 2 5   0.000000   2.929555  16.268682   0.037984   # H_
 267 1 9   0.000000   1.933822  23.329590   0.000000   # O_1
 268 1 6   0.000000   3.152223  23.743789   0.000000   # C_2
 269 1 9   0.000000   3.566424  24.962189   0.000000   # O_1
 270 1 8   0.000000   4.209222  22.686789   0.000000   # C_R
 271 1 8   0.000000   3.891921  21.360789   0.000000   # C_R
 272 1 8   0.000000   5.535222  23.004088   0.000000   # C_R
 273 1 8   0.000000   4.827820  20.387188   0.000000   # C_R
 274 1 5   0.000000   2.996221  21.115990   0.000000   # H_
 275 1 8   0.000000   6.508821  22.068187   0.000000   # C_R
 276 1 5   0.000000   5.780023  23.899788   0.000000   # H_
 277 1 8   0.000000   6.204920  20.691087   0.000000   # C_R
 278 1 8   0.000000   7.243120  19.652886   0.000000   # C_R
 279 1 5   0.000000   4.558920  19.496888   0.000000   # H_
 280 1 8   0.000000   6.939219  18.275787   0.000000   # C_R
 281 1 5   0.000000   7.399122  22.337086   0.000000   # H_
 282 1 8   0.000000   8.620220  19.956785   0.000000   # C_R
 283 1 8   0.000000   7.912818  17.339886   0.000000   # C_R
 284 1 5   0.000000   6.048918  18.006887   0.000000   # H_
 285 1 8   0.000000   9.556119  18.983185   0.000000   # C_R
 286 1 5   0.000000   8.889121  20.847085   0.000000   # H_
 287 1 8   0.000000   9.238818  17.657185   0.000000   # C_R
 288 1 6   0.000000  10.295817  16.600184   0.000000   # C_2
 289 2 10   0.000000   7.537996  16.007404   0.002433   # O_3
 290 1 5   0.000000  10.451819  19.227984   0.000000   # H_
 291 1 9   0.000000   9.881616  15.381784   0.000000   # O_1
 292 1 9   0.000000  11.514218  17.014383   0.000000   # O_1
 293 2 7   0.000000   6.164530  15.634187  26.891963   # C_3
 294 2 7   0.000000   6.062218  14.110975  26.891456   # C_3
 295 2 5   0.000000   5.674704  16.022108  25.990276   # H_
 296 2 5   0.000000   5.666124  16.021868   0.892813   # H_
 297 2 5   0.000000   6.592069  13.708931  26.019367   # H_
 298 2 7   0.000000   4.599711  13.666164  26.880047   # C_3
 299 2 5   0.000000   6.578085  13.709410   0.876462   # H_
 300 2 5   0.000000   4.099532  14.077717  25.994389   # H_
 301 2 5   0.000000   4.085531  14.076340   0.861901   # H_
 302 2 7   0.000000   4.467460  12.144825  26.877564   # C_3
 303 2 5   0.000000   4.975428  11.727348  26.000849   # H_
 304 2 7   0.000000   3.007280  11.718877  26.859522   # C_3
 305 2 5   0.000000   4.953922  11.726759   0.870498   # H_
 306 2 5   0.000000   2.499549  12.096895  25.966090   # H_
 307 2 5   0.000000   2.477390  12.096298   0.844016   # H_
 308 2 5   0.000000   2.929555  10.627318  26.858016   # H_
 309 1 9   0.000000  24.962178  23.329590   0.000000   # O_1
 310 1 6   0.000000  23.743777  23.743789   0.000000   # C_2
 311 1 9   0.000000  23.329576  24.962189   0.000000   # O_1
 312 1 8   0.000000  22.686778  22.686789   0.000000   # C_R
 313 1 8   0.000000  23.004079  21.360789  26.896000   # C_R
 314 1 8   0.000000  21.360778  23.004088   0.000000   # C_R
 315 1 8   0.000000  22.068180  20.387188  26.896000   # C_R
 316 1 5   0.000000  23.899779  21.115990  26.896000   # H_
 317 1 8   0.000000  20.387179  22.068187   0.000000   # C_R
 318 1 5   0.000000  21.115977  23.899788   0.000000   # H_
 319 1 8   0.000000  20.691080  20.691087   0.000000   # C_R
 320 1 8   0.000000  19.652880  19.652886  26.896000   # C_R
 321 1 5   0.000000  22.337080  19.496888  26.896000   # H_
 322 1 8   0.000000  19.956781  18.275787  26.896000   # C_R
 323 1 5   0.000000  19.496878  22.337086   0.000000   # H_
 324 1 8   0.000000  18.275780  19.956785   0.000000   # C_R
 325 1 8   0.000000  18.983182  17.339886  26.896000   # C_R
 326 1 5   0.000000  20.847082  18.006887  26.896000   # H_
 327 1 8   0.000000  17.339881  18.983185   0.000000   # C_R
 328 1 5   0.000000  18.006879  20.847085   0.000000   # H_
 329 1 8   0.000000  17.657182  17.657185  26.896000   # C_R
 330 1 6   0.000000  16.600183  16.600184  26.896000   # C_2
 331 2 10   0.000000  19.358004  16.007404  26.893567   # O_3
 332 1 5   0.000000  16.444181  19.227984   0.000000   # H_
 333 1 9   0.000000  17.014384  15.381784  26.896000   # O_1
 334 1 9   0.000000  15.381782  17.014383   0.000000   # O_1
 335 2 7   0.000000  20.731470  15.634187   0.004037   # C_3
 336 2 7   0.000000  20.833782  14.110975   0.004544   # C_3
 337 2 5   0.000000  21.221296  16.022108   0.905724   # H_
 338 2 5   0.000000  21.229876  16.021868  26.003187   # H_
 339 2 5   0.000000  20.303931  13.708931   0.876633   # H_
 340 2 7   0.000000  22.296289  13.666164   0.015953   # C_3
 341 2 5   0.000000  20.317915  13.709410  26.019538   # H_
 342 2 5   0.000000  22.796468  14.077717   0.901611   # H_
 343 2 5   0.000000  22.810469  14.076340  26.034099   # H_
 344 2 7   0.000000  22.428540  12.144825   0.018436   # C_3
 345 2 5   0.000000  21.920572  11.727348   0.895151   # H_
 346 2 7   0.000000  23.888720  11.718877   0.036478   # C_3
 347 2 5   0.000000  21.942078  11.726759  26.025502   # H_
 348 2 5   0.000000  24.396451  12.096895   0.929910   # H_
 349 2 5   0.000000  24.418610  12.096298  26.051984   # H_
 350 2 5   0.000000  23.966445  10.627318   0.037984   # H_
 351 1 9   0.000000  24.962178   3.566410   0.000000   # O_1
 352 1 6   0.000000  23.743777   3.152211   0.000000   # C_2
 353 1 9   0.000000  23.329576   1.933811   0.000000   # O_1
 354 1 8   0.000000  22.686778   4.209211   0.000000   # C_R
 355 1 8   0.000000  23.004079   5.535211   0.000000   # C_R
 356 1 8   0.000000  21.360778   3.891912   0.000000   # C_R
 357 1 8   0.000000  22.068180   6.508812   0.000000   # C_R
 358 1 5   0.000000  23.899779   5.780010   0.000000   # H_
 359 1 8   0.000000  20.387179   4.827813   0.000000   # C_R
 360 1 5   0.000000  21.115977   2.996212   0.000000   # H_
 361 1 8   0.000000  20.691080   6.204913   0.000000   # C_R
 362 1 8   0.000000  19.652880   7.243114   0.000000   # C_R
 363 1 5   0.000000  22.337080   7.399112   0.000000   # H_
 364 1 8   0.000000  19.956781   8.620213   0.000000   # C_R
 365 1 5   0.000000  19.496878   4.558914   0.000000   # H_
 366 1 8   0.000000  18.275780   6.939215   0.000000   # C_R
 367 1 8   0.000000  18.983182   9.556114   0.000000   # C_R
 368 1 5   0.000000  20.847082   8.889113   0.000000   # H_
 369 1 8   0.000000  17.339881   7.912815   0.000000   # C_R
 370 1 5   0.000000  18.006879   6.048915   0.000000   # H_
 371 1 8   0.000000  17.657182   9.238815   0.000000   # C_R
 372 1 6   0.000000  16.600183  10.295816   0.000000   # C_2
 373 2 10   0.000000  19.358004  10.888596   0.002433   # O_3
 374 1 5   0.000000  16.444181   7.668016   0.000000   # H_
 375 1 9   0.000000  17.014384  11.514216   0.000000   # O_1
 376 1 9   0.000000  15.381782   9.881617   0.000000   # O_1
 377 2 7   0.000000  20.731470  11.261813  26.891963   # C_3
 378 2 7   0.000000  20.833782  12.785025  26.891456   # C_3
 379 2 5   0.000000  21.221296  10.873892  25.990276   # H_
 380 2 5   0.000000  21.229876  10.874132   0.892813   # H_
 381 2 5   0.000000  20.303931  13.187069  26.019367   # H_
 382 2 7   0.000000  22.296289  13.229836  26.880047   # C_3
 383 2 5   0.000000  20.317915  13.186590   0.876462   # H_
 384 2 5   0.000000  22.796468  12.818283  25.994389   # H_
 385 2 5   0.000000  22.810469  12.819660   0.861901   # H_
 386 2 7   0.000000  22.428540  14.751175  26.877564   # C_3
 387 2 5   0.000000  21.920572  15.168652  26.000849   # H_
 388 2 7   0.000000  23.888720  15.177123  26.859522   # C_3
 389 2 5   0.000000  21.942078  15.169241   0.870498   # H_
 390 2 5   0.000000  24.396451  14.799105  25.966090   # H_
 391 2 5   0.000000  24.418610  14.799702   0.844016   # H_
 392 2 5   0.000000  23.966445  16.268682  26.858016   # H_
 393 1 9   0.000000   0.000000   1.933822   3.566410   # O_1
 394 1 6   0.000000   0.000000   3.152223   3.152211   # C_2
 395 1 9   0.000000   0.000000   3.566424   1.933811   # O_1
 396 1 8   0.000000   0.000000   4.209222   4.209211   # C_R
 397 1 8   0.000000   0.000000   3.891921   5.535211   # C_R
 398 1 8   0.000000   0.000000   5.535222   3.891912   # C_R
 399 1 8   0.000000   0.000000   4.827820   6.508812   # C_R
 400 1 5   0.000000   0.000000   2.996221   5.780010   # H_
 401 1 8   0.000000   0.000000   6.508821   4.827813   # C_R
 402 1 5   0.000000   0.000000   5.780023   2.996212   # H_
 403 1 8   0.000000   0.000000   6.204920   6.204913   # C_R
 404 1 8   0.000000   0.000000   7.243120   7.243114   # C_R
 405 1 5   0.000000   0.000000   4.558920   7.399112   # H_
 406 1 8   0.000000   0.000000   6.939219   8.620213   # C_R
 407 1 5   0.000000   0.000000   7.399122   4.558914   # H_
 408 1 8   0.000000   0.000000   8.620220   6.939215   # C_R
 409 1 8   0.000000   0.000000   7.912818   9.556114   # C_R
 410 1 5   0.000000   0.000000   6.048918   8.889113   # H_
 411 1 8   0.000000   0.000000   9.556119   7.912815   # C_R
 412 1 5   0.000000   0.000000   8.889121   6.048915   # H_
 413 1 8   0.000000   0.000000   9.238818   9.238815   # C_R
 414 1 6   0.000000   0.000000  10.295817  10.295816   # C_2
 415 2 10   0.000000  26.893567   7.537996  10.888596   # O_3
 416 1 5   0.000000   0.000000  10.451819   7.668016   # H_
 417 1 9   0.000000   0.000000   9.881616  11.514216   # O_1
 418 1 9   0.000000   0.000000  11.514218   9.881617   # O_1
 419 2 7   0.000000   0.004037   6.164530  11.261813   # C_3
 420 2 7   0.000000   0.004544   6.062218  12.785025   # C_3
 421 2 5   0.000000   0.905724   5.674704  10.873892   # H_
 422 2 5   0.000000  26.003187   5.666124  10.874132   # H_
 423 2 5   0.000000   0.876633   6.592069  13.187069   # H_
 424 2 7   0.000000   0.015953   4.599711  13.229836   # C_3
 425 2 5   0.000000  26.019538   6.578085  13.186590   # H_
 426 2 5   0.000000   0.901611   4.099532  12.818283   # H_
 427 2 5   0.000000  26.034099   4.085531  12.819660   # H_
 428 2 7   0.000000   0.018436   4.467460  14.751175   # C_3
 429 2 5   0.000000   0.895151   4.975428  15.168652   # H_
 430 2 7   0.000000   0.036478   3.007280  15.177123   # C_3
 431 2 5   0.000000  26.025502   4.953922  15.169241   # H_
 432 2 5   0.000000   0.929910   2.499549  14.799105   # H_
 433 2 5   0.000000  26.051984   2.477390  14.799702   # H_
 434 2 5   0.000000   0.037984   2.929555  16.268682   # H_
 435 1 9   0.000000   0.000000   1.933822  23.329590   # O_1
 436 1 6   0.000000   0.000000   3.152223  23.743789   # C_2
 437 1 9   0.000000   0.000000   3.566424  24.962189   # O_1
 438 1 8   0.000000   0.000000   4.209222  22.686789   # C_R
 439 1 8   0.000000   0.000000   3.891921  21.360789   # C_R
 440 1 8   0.000000   0.000000   5.535222  23.004088   # C_R
 441 1 8   0.000000   0.000000   4.827820  20.387188   # C_R
 442 1 5   0.000000   0.000000   2.996221  21.115990   # H_
 443 1 8   0.000000   0.000000   6.508821  22.068187   # C_R
 444 1 5   0.000000   0.000000   5.780023  23.899788   # H_
 445 1 8   0.000000   0.000000   6.204920  20.691087   # C_R
 446 1 8   0.000000   0.000000   7.243120  19.652886   # C_R
 447 1 5   0.000000   0.000000   4.558920  19.496888   # H_
 448 1 8   0.000000   0.000000   6.939219  18.275787   # C_R
 449 1 5   0.000000   0.000000   7.399122  22.337086   # H_
 450 1 8   0.000000   0.000000   8.620220  19.956785   # C_R
 451 1 8   0.000000   0.000000   7.912818  17.339886   # C_R
 452 1 5   0.000000   0.000000   6.048918  18.006887   # H_
 453 1 8   0.000000   0.000000   9.556119  18.983185   # C_R
 454 1 5   0.000000   0.000000   8.889121  20.847085   # H_
 455 1 8   0.000000   0.000000   9.238818  17.657185   # C_R
 456 1 6   0.000000   0.000000  10.295817  16.600184   # C_2
 457 2 10   0.000000   0.002433   7.537996  16.007404   # O_3
 458 1 5   0.000000   0.000000  10.451819  19.227984   # H_
 459 1 9   0.000000   0.000000   9.881616  15.381784   # O_1
 460 1 9   0.000000   0.000000  11.514218  17.014383   # O_1
 461 2 7   0.000000  26.891963   6.164530  15.634187   # C_3
 462 2 7   0.000000  26.891456   6.062218  14.110975   # C_3
 463 2 5   0.000000  25.990276   5.674704  16.022108   # H_