 (written by mofun)

704 atoms
48 bonds
72 angles
144 dihedrals
0 impropers

9 atom types
2 bond types
2 angle types
4 dihedral types
   0.000000  26.896000 xlo xhi
   0.000000  26.896000 ylo yhi
   0.000000  26.896000 zlo zhi

Masses

 1 91.2240   # Zr3+4
 2 15.9994   # O_3
 3 12.0107   # C_3
 4 1.0079   # H_
 5 1.0079   # H_
 6 12.0107   # C_2
 7 12.0107   # C_R
 8 15.9994   # O_1
 9 15.9994   # O_3

Pair Coeffs

 1   0.069000   2.783168 # Zr3+4
 2   0.060000   3.118146 # O_3
 3   0.105000   3.430851 # C_3
 4   0.044000   2.571134 # H_
 5 0.044000 2.571134   # H_
 6 0.105000 3.430851   # C_2
 7 0.105000 3.430851   # C_R
 8 0.060000 3.118146   # O_1
 9 0.060000 3.118146   # O_3

Bond Coeffs

 1 572.510195 1.366311   # C_R O_3
 2 559.995206 0.990254   # H_ O_3

Angle Coeffs

 1 cosine/periodic  271.563462  -1  3   # C_R C_R O_3
 2 fourier  181.607508  0.300235  0.267331  0.266745   # C_R O_3 H_

Dihedral Coeffs

 1 harmonic 3.368555 -1 2   # C_R C_R C_R O_3 M=4
 2 harmonic 3.368555 -1 2   # H_ C_R C_R O_3 M=4
 3 harmonic 3.368555 -1 2   # C_2 C_R C_R O_3 M=4
 4 harmonic 2.500000 1 2   # C_R C_R O_3 H_ M=2

Atoms

 1 1 1   0.000000   2.475508   0.000000   0.000000   # Zr3+4
 2 1 1   0.000000  24.420492   0.000000   0.000000   # Zr3+4
 3 1 1   0.000000   0.000000   2.475508   0.000000   # Zr3+4
 4 1 1   0.000000   0.000000  24.420492   0.000000   # Zr3+4
 5 1 1   0.000000   0.000000   0.000000   2.475508   # Zr3+4
 6 1 1   0.000000   0.000000   0.000000  24.420492   # Zr3+4
 7 1 1   0.000000   2.475508  13.448000  13.448000   # Zr3+4
 8 1 1   0.000000  24.420492  13.448000  13.448000   # Zr3+4
 9 1 1   0.000000   0.000000  15.923508  13.448000   # Zr3+4
 10 1 1   0.000000   0.000000  10.972492  13.448000   # Zr3+4
 11 1 1   0.000000   0.000000  13.448000  15.923508   # Zr3+4
 12 1 1   0.000000   0.000000  13.448000  10.972492   # Zr3+4
 13 1 1   0.000000  15.923508   0.000000  13.448000   # Zr3+4
 14 1 1   0.000000  10.972492   0.000000  13.448000   # Zr3+4
 15 1 1   0.000000  13.448000   2.475508  13.448000   # Zr3+4
 16 1 1   0.000000  13.448000  24.420492  13.448000   # Zr3+4
 17 1 1   0.000000  13.448000   0.000000  15.923508   # Zr3+4
 18 1 1   0.000000  13.448000   0.000000  10.972492   # Zr3+4
 19 1 1   0.000000  15.923508  13.448000   0.000000   # Zr3+4
 20 1 1   0.000000  10.972492  13.448000   0.000000   # Zr3+4
 21 1 1   0.000000  13.448000  15.923508   0.000000   # Zr3+4
 22 1 1   0.000000  13.448000  10.972492   0.000000   # Zr3+4
 23 1 1   0.000000  13.448000  13.448000   2.475508   # Zr3+4
 24 1 1   0.000000  13.448000  13.448000  24.420492   # Zr3+4
 25 1 2   0.000000   1.221078   1.221078   1.221078   # O_3
 26 1 2   0.000000  25.674922  25.674922   1.221078   # O_3
 27 1 2   0.000000  25.674922   1.221078  25.674922   # O_3
 28 1 2   0.000000   1.221078  25.674922  25.674922   # O_3
 29 1 2   0.000000   1.221078   1.221078  25.674922   # O_3
 30 1 2   0.000000  25.674922  25.674922  25.674922   # O_3
 31 1 2   0.000000   1.221078  25.674922   1.221078   # O_3
 32 1 2   0.000000  25.674922   1.221078   1.221078   # O_3
 33 1 2   0.000000   1.221078  14.669078  14.669078   # O_3
 34 1 2   0.000000  25.674922  12.226922  14.669078   # O_3
 35 1 2   0.000000  25.674922  14.669078  12.226922   # O_3
 36 1 2   0.000000   1.221078  12.226922  12.226922   # O_3
 37 1 2   0.000000   1.221078  14.669078  12.226922   # O_3
 38 1 2   0.000000  25.674922  12.226922  12.226922   # O_3
 39 1 2   0.000000   1.221078  12.226922  14.669078   # O_3
 40 1 2   0.000000  25.674922  14.669078  14.669078   # O_3
 41 1 2   0.000000  14.669078   1.221078  14.669078   # O_3
 42 1 2   0.000000  12.226922  25.674922  14.669078   # O_3
 43 1 2   0.000000  12.226922   1.221078  12.226922   # O_3
 44 1 2   0.000000  14.669078  25.674922  12.226922   # O_3
 45 1 2   0.000000  14.669078   1.221078  12.226922   # O_3
 46 1 2   0.000000  12.226922  25.674922  12.226922   # O_3
 47 1 2   0.000000  14.669078  25.674922  14.669078   # O_3
 48 1 2   0.000000  12.226922   1.221078  14.669078   # O_3
 49 1 2   0.000000  14.669078  14.669078   1.221078   # O_3
 50 1 2   0.000000  12.226922  12.226922   1.221078   # O_3
 51 1 2   0.000000  12.226922  14.669078  25.674922   # O_3
 52 1 2   0.000000  14.669078  12.226922  25.674922   # O_3
 53 1 2   0.000000  14.669078  14.669078  25.674922   # O_3
 54 1 2   0.000000  12.226922  12.226922  25.674922   # O_3
 55 1 2   0.000000  14.669078  12.226922   1.221078   # O_3
 56 1 2   0.000000  12.226922  14.669078   1.221078   # O_3
 57 1 8   0.000000   3.566410   0.000000   1.933822   # O_1
 58 1 6   0.000000   3.152211   0.000000   3.152223   # C_2
 59 1 8   0.000000   1.933811  26.896000   3.566424   # O_1
 60 1 7   0.000000   4.209211   0.000000   4.209222   # C_R
 61 1 7   0.000000   5.535211   0.000000   3.891921   # C_R
 62 1 7   0.000000   3.891912   0.000000   5.535222   # C_R
 63 1 7   0.000000   6.508812   0.000000   4.827820   # C_R
 64 1 5   0.000000   5.780010  26.896000   2.996221   # H_
 65 1 7   0.000000   4.827813  26.896000   6.508821   # C_R
 66 1 5   0.000000   2.996212  26.896000   5.780023   # H_
 67 1 7   0.000000   6.204913   0.000000   6.204920   # C_R
 68 1 7   0.000000   7.243114  26.896000   7.243120   # C_R
 69 1 5   0.000000   7.399112   0.000000   4.558920   # H_
 70 1 7   0.000000   8.620213   0.000000   6.939219   # C_R
 71 1 5   0.000000   4.558914   0.000000   7.399122   # H_
 72 1 7   0.000000   6.939215   0.000000   8.620220   # C_R
 73 1 7   0.000000   9.556114   0.000000   7.912818   # C_R
 74 1 5   0.000000   8.889113  26.896000   6.048918   # H_
 75 1 7   0.000000   7.912815   0.000000   9.556119   # C_R
 76 1 5   0.000000   6.048915   0.000000   8.889121   # H_
 77 1 7   0.000000   9.238815  26.896000   9.238818   # C_R
 78 1 6   0.000000  10.295816  26.896000  10.295817   # C_2
 79 2 9   0.000000  10.855091  26.896000   7.464649   # O_3
 80 1 5   0.000000   7.668016   0.000000  10.451819   # H_
 81 1 8   0.000000  11.514216   0.000000   9.881616   # O_1
 82 1 8   0.000000   9.881617   0.000000  11.514218   # O_1
 83 2 5   0.000000  10.895874   0.000000   6.501408   # H_
 84 1 8   0.000000  23.329590   0.000000   1.933822   # O_1
 85 1 6   0.000000  23.743789   0.000000   3.152223   # C_2
 86 1 8   0.000000  24.962189   0.000000   3.566424   # O_1
 87 1 7   0.000000  22.686789   0.000000   4.209222   # C_R
 88 1 7   0.000000  21.360789  26.896000   3.891921   # C_R
 89 1 7   0.000000  23.004088   0.000000   5.535222   # C_R
 90 1 7   0.000000  20.387188  26.896000   4.827820   # C_R
 91 1 5   0.000000  21.115990  26.896000   2.996221   # H_
 92 1 7   0.000000  22.068187   0.000000   6.508821   # C_R
 93 1 5   0.000000  23.899788   0.000000   5.780023   # H_
 94 1 7   0.000000  20.691087   0.000000   6.204920   # C_R
 95 1 7   0.000000  19.652886  26.896000   7.243120   # C_R
 96 1 5   0.000000  19.496888  26.896000   4.558920   # H_
 97 1 7   0.000000  18.275787  26.896000   6.939219   # C_R
 98 1 5   0.000000  22.337086   0.000000   7.399122   # H_
 99 1 7   0.000000  19.956785   0.000000   8.620220   # C_R
 100 1 7   0.000000  17.339886  26.896000   7.912818   # C_R
 101 1 5   0.000000  18.006887  26.896000   6.048918   # H_
 102 1 7   0.000000  18.983185   0.000000   9.556119   # C_R
 103 1 5   0.000000  20.847085   0.000000   8.889121   # H_
 104 1 7   0.000000  17.657185  26.896000   9.238818   # C_R
 105 1 6   0.000000  16.600184  26.896000  10.295817   # C_2
 106 2 9   0.000000  16.040909  26.896000   7.464649   # O_3
 107 1 5   0.000000  19.227984   0.000000  10.451819   # H_
 108 1 8   0.000000  15.381784  26.896000   9.881616   # O_1
 109 1 8   0.000000  17.014383  26.896000  11.514218   # O_1
 110 2 5   0.000000  16.000126  26.896000   6.501408   # H_
 111 1 8   0.000000  23.329590   0.000000  24.962178   # O_1
 112 1 6   0.000000  23.743789   0.000000  23.743777   # C_2
 113 1 8   0.000000  24.962189   0.000000  23.329576   # O_1
 114 1 7   0.000000  22.686789   0.000000  22.686778   # C_R
 115 1 7   0.000000  21.360789  26.896000  23.004079   # C_R
 116 1 7   0.000000  23.004088   0.000000  21.360778   # C_R
 117 1 7   0.000000  20.387188  26.896000  22.068180   # C_R
 118 1 5   0.000000  21.115990  26.896000  23.899779   # H_
 119 1 7   0.000000  22.068187   0.000000  20.387179   # C_R
 120 1 5   0.000000  23.899788   0.000000  21.115977   # H_
 121 1 7   0.000000  20.691087   0.000000  20.691080   # C_R
 122 1 7   0.000000  19.652886  26.896000  19.652880   # C_R
 123 1 5   0.000000  19.496888  26.896000  22.337080   # H_
 124 1 7   0.000000  18.275787  26.896000  19.956781   # C_R
 125 1 5   0.000000  22.337086   0.000000  19.496878   # H_
 126 1 7   0.000000  19.956785   0.000000  18.275780   # C_R
 127 1 7   0.000000  17.339886  26.896000  18.983182   # C_R
 128 1 5   0.000000  18.006887  26.896000  20.847082   # H_
 129 1 7   0.000000  18.983185   0.000000  17.339881   # C_R
 130 1 5   0.000000  20.847085   0.000000  18.006879   # H_
 131 1 7   0.000000  17.657185  26.896000  17.657182   # C_R
 132 1 6   0.000000  16.600184  26.896000  16.600183   # C_2
 133 2 9   0.000000  16.040909  26.896000  19.431351   # O_3
 134 1 5   0.000000  19.227984   0.000000  16.444181   # H_
 135 1 8   0.000000  15.381784  26.896000  17.014384   # O_1
 136 1 8   0.000000  17.014383  26.896000  15.381782   # O_1
 137 2 5   0.000000  16.000126  26.896000  20.394592   # H_
 138 1 8   0.000000   3.566410   0.000000  24.962178   # O_1
 139 1 6   0.000000   3.152211   0.000000  23.743777   # C_2
 140 1 8   0.000000   1.933811   0.000000  23.329576   # O_1
 141 1 7   0.000000   4.209211   0.000000  22.686778   # C_R
 142 1 7   0.000000   5.535211   0.000000  23.004079   # C_R
 143 1 7   0.000000   3.891912   0.000000  21.360778   # C_R
 144 1 7   0.000000   6.508812   0.000000  22.068180   # C_R
 145 1 5   0.000000   5.780010   0.000000  23.899779   # H_
 146 1 7   0.000000   4.827813   0.000000  20.387179   # C_R
 147 1 5   0.000000   2.996212   0.000000  21.115977   # H_
 148 1 7   0.000000   6.204913   0.000000  20.691080   # C_R
 149 1 7   0.000000   7.243114   0.000000  19.652880   # C_R
 150 1 5   0.000000   7.399112   0.000000  22.337080   # H_
 151 1 7   0.000000   8.620213   0.000000  19.956781   # C_R
 152 1 5   0.000000   4.558914   0.000000  19.496878   # H_
 153 1 7   0.000000   6.939215   0.000000  18.275780   # C_R
 154 1 7   0.000000   9.556114   0.000000  18.983182   # C_R
 155 1 5   0.000000   8.889113   0.000000  20.847082   # H_
 156 1 7   0.000000   7.912815   0.000000  17.339881   # C_R
 157 1 5   0.000000   6.048915   0.000000  18.006879   # H_
 158 1 7   0.000000   9.238815   0.000000  17.657182   # C_R
 159 1 6   0.000000  10.295816   0.000000  16.600183   # C_2
 160 2 9   0.000000  10.855091   0.000000  19.431351   # O_3
 161 1 5   0.000000   7.668016   0.000000  16.444181   # H_
 162 1 8   0.000000  11.514216   0.000000  17.014384   # O_1
 163 1 8   0.000000   9.881617   0.000000  15.381782   # O_1
 164 2 5   0.000000  10.895874   0.000000  20.394592   # H_
 165 1 8   0.000000   1.933822   3.566410   0.000000   # O_1
 166 1 6   0.000000   3.152223   3.152211   0.000000   # C_2
 167 1 8   0.000000   3.566424   1.933811   0.000000   # O_1
 168 1 7   0.000000   4.209222   4.209211   0.000000   # C_R
 169 1 7   0.000000   3.891921   5.535211  26.896000   # C_R
 170 1 7   0.000000   5.535222   3.891912   0.000000   # C_R
 171 1 7   0.000000   4.827820   6.508812  26.896000   # C_R
 172 1 5   0.000000   2.996221   5.780010  26.896000   # H_
 173 1 7   0.000000   6.508821   4.827813   0.000000   # C_R
 174 1 5   0.000000   5.780023   2.996212   0.000000   # H_
 175 1 7   0.000000   6.204920   6.204913   0.000000   # C_R
 176 1 7   0.000000   7.243120   7.243114  26.896000   # C_R
 177 1 5   0.000000   4.558920   7.399112  26.896000   # H_
 178 1 7   0.000000   6.939219   8.620213  26.896000   # C_R
 179 1 5   0.000000   7.399122   4.558914   0.000000   # H_
 180 1 7   0.000000   8.620220   6.939215   0.000000   # C_R
 181 1 7   0.000000   7.912818   9.556114  26.896000   # C_R
 182 1 5   0.000000   6.048918   8.889113  26.896000   # H_
 183 1 7   0.000000   9.556119   7.912815   0.000000   # C_R
 184 1 5   0.000000   8.889121   6.048915   0.000000   # H_
 185 1 7   0.000000   9.238818   9.238815  26.896000   # C_R
 186 1 6   0.000000  10.295817  10.295816  26.896000   # C_2
 187 2 9   0.000000   7.464649  10.855091  26.896000   # O_3
 188 1 5   0.000000  10.451819   7.668016   0.000000   # H_
 189 1 8   0.000000   9.881616  11.514216  26.896000   # O_1
 190 1 8   0.000000  11.514218   9.881617  26.896000   # O_1
 191 2 5   0.000000   6.501408  10.895874  26.896000   # H_
 192 1 8   0.000000   1.933822  23.329590   0.000000   # O_1
 193 1 6   0.000000   3.152223  23.743789   0.000000   # C_2
 194 1 8   0.000000   3.566424  24.962189   0.000000   # O_1
 195 1 7   0.000000   4.209222  22.686789   0.000000   # C_R
 196 1 7   0.000000   3.891921  21.360789   0.000000   # C_R
 197 1 7   0.000000   5.535222  23.004088   0.000000   # C_R
 198 1 7   0.000000   4.827820  20.387188   0.000000   # C_R
 199 1 5   0.000000   2.996221  21.115990   0.000000   # H_
 200 1 7   0.000000   6.508821  22.068187   0.000000   # C_R
 201 1 5   0.000000   5.780023  23.899788   0.000000   # H_
 202 1 7   0.000000   6.204920  20.691087   0.000000   # C_R
 203 1 7   0.000000   7.243120  19.652886   0.000000   # C_R
 204 1 5   0.000000   4.558920  19.496888   0.000000   # H_
 205 1 7   0.000000   6.939219  18.275787   0.000000   # C_R
 206 1 5   0.000000   7.399122  22.337086   0.000000   # H_
 207 1 7   0.000000   8.620220  19.956785   0.000000   # C_R
 208 1 7   0.000000   7.912818  17.339886   0.000000   # C_R
 209 1 5   0.000000   6.048918  18.006887   0.000000   # H_
 210 1 7   0.000000   9.556119  18.983185   0.000000   # C_R
 211 1 5   0.000000   8.889121  20.847085   0.000000   # H_
 212 1 7   0.000000   9.238818  17.657185   0.000000   # C_R
 213 1 6   0.000000  10.295817  16.600184   0.000000   # C_2
 214 2 9   0.000000   7.464649  16.040909   0.000000   # O_3
 215 1 5   0.000000  10.451819  19.227984   0.000000   # H_
 216 1 8   0.000000   9.881616  15.381784   0.000000   # O_1
 217 1 8   0.000000  11.514218  17.014383   0.000000   # O_1
 218 2 5   0.000000   6.501408  16.000126   0.000000   # H_
 219 1 8   0.000000  24.962178  23.329590   0.000000   # O_1
 220 1 6   0.000000  23.743777  23.743789   0.000000   # C_2
 221 1 8   0.000000  23.329576  24.962189   0.000000   # O_1
 222 1 7   0.000000  22.686778  22.686789   0.000000   # C_R
 223 1 7   0.000000  23.004079  21.360789  26.896000   # C_R
 224 1 7   0.000000  21.360778  23.004088   0.000000   # C_R
 225 1 7   0.000000  22.068180  20.387188  26.896000   # C_R
 226 1 5   0.000000  23.899779  21.115990  26.896000   # H_
 227 1 7   0.000000  20.387179  22.068187   0.000000   # C_R
 228 1 5   0.000000  21.115977  23.899788   0.000000   # H_
 229 1 7   0.000000  20.691080  20.691087   0.000000   # C_R
 230 1 7   0.000000  19.652880  19.652886  26.896000   # C_R
 231 1 5   0.000000  22.337080  19.496888  26.896000   # H_
 232 1 7   0.000000  19.956781  18.275787  26.896000   # C_R
 233 1 5   0.000000  19.496878  22.337086   0.000000   # H_
 234 1 7   0.000000  18.275780  19.956785   0.000000   # C_R
 235 1 7   0.000000  18.983182  17.339886  26.896000   # C_R
 236 1 5   0.000000  20.847082  18.006887  26.896000   # H_
 237 1 7   0.000000  17.339881  18.983185   0.000000   # C_R
 238 1 5   0.000000  18.006879  20.847085   0.000000   # H_
 239 1 7   0.000000  17.657182  17.657185  26.896000   # C_R
 240 1 6   0.000000  16.600183  16.600184  26.896000   # C_2
 241 2 9   0.000000  19.431351  16.040909  26.896000   # O_3
 242 1 5   0.000000  16.444181  19.227984   0.000000   # H_
 243 1 8   0.000000  17.014384  15.381784  26.896000   # O_1
 244 1 8   0.000000  15.381782  17.014383   0.000000   # O_1
 245 2 5   0.000000  20.394592  16.000126  26.896000   # H_
 246 1 8   0.000000  24.962178   3.566410   0.000000   # O_1
 247 1 6   0.000000  23.743777   3.152211   0.000000   # C_2
 248 1 8   0.000000  23.329576   1.933811   0.000000   # O_1
 249 1 7   0.000000  22.686778   4.209211   0.000000   # C_R
 250 1 7   0.000000  23.004079   5.535211   0.000000   # C_R
 251 1 7   0.000000  21.360778   3.891912   0.000000   # C_R
 252 1 7   0.000000  22.068180   6.508812   0.000000   # C_R
 253 1 5   0.000000  23.899779   5.780010   0.000000   # H_
 254 1 7   0.000000  20.387179   4.827813   0.000000   # C_R
 255 1 5   0.000000  21.115977   2.996212   0.000000   # H_
 256 1 7   0.000000  20.691080   6.204913   0.000000   # C_R
 257 1 7   0.000000  19.652880   7.243114   0.000000   # C_R
 258 1 5   0.000000  22.337080   7.399112   0.000000   # H_
 259 1 7   0.000000  19.956781   8.620213   0.000000   # C_R
 260 1 5   0.000000  19.496878   4.558914   0.000000   # H_
 261 1 7   0.000000  18.275780   6.939215   0.000000   # C_R
 262 1 7   0.000000  18.983182   9.556114   0.000000   # C_R
 263 1 5   0.000000  20.847082   8.889113   0.000000   # H_
 264 1 7   0.000000  17.339881   7.912815   0.000000   # C_R
 265 1 5   0.000000  18.006879   6.048915   0.000000   # H_
 266 1 7   0.000000  17.657182   9.238815   0.000000   # C_R
 267 1 6   0.000000  16.600183  10.295816   0.000000   # C_2
 268 2 9   0.000000  19.431351  10.855091   0.000000   # O_3
 269 1 5   0.000000  16.444181   7.668016   0.000000   # H_
 270 1 8   0.000000  17.014384  11.514216   0.000000   # O_1
 271 1 8   0.000000  15.381782   9.881617   0.000000   # O_1
 272 2 5   0.000000  20.394592  10.895874   0.000000   # H_
 273 1 8   0.000000   0.000000   1.933822   3.566410   # O_1
 274 1 6   0.000000   0.000000   3.152223   3.152211   # C_2
 275 1 8   0.000000   0.000000   3.566424   1.933811   # O_1
 276 1 7   0.000000   0.000000   4.209222   4.209211   # C_R
 277 1 7   0.000000   0.000000   3.891921   5.535211   # C_R
 278 1 7   0.000000   0.000000   5.535222   3.891912   # C_R
 279 1 7   0.000000   0.000000   4.827820   6.508812   # C_R
 280 1 5   0.000000   0.000000   2.996221   5.780010   # H_
 281 1 7   0.000000   0.000000   6.508821   4.827813   # C_R
 282 1 5   0.000000   0.000000   5.780023   2.996212   # H_
 283 1 7   0.000000   0.000000   6.204920   6.204913   # C_R
 284 1 7   0.000000   0.000000   7.243120   7.243114   # C_R
 285 1 5   0.000000   0.000000   4.558920   7.399112   # H_
 286 1 7   0.000000   0.000000   6.939219   8.620213   # C_R
 287 1 5   0.000000   0.000000   7.399122   4.558914   # H_
 288 1 7   0.000000   0.000000   8.620220   6.939215   # C_R
 289 1 7   0.000000   0.000000   7.912818   9.556114   # C_R
 290 1 5   0.000000   0.000000   6.048918   8.889113   # H_
 291 1 7   0.000000   0.000000   9.556119   7.912815   # C_R
 292 1 5   0.000000   0.000000   8.889121   6.048915   # H_
 293 1 7   0.000000   0.000000   9.238818   9.238815   # C_R
 294 1 6   0.000000   0.000000  10.295817  10.295816   # C_2
 295 2 9   0.000000   0.000000   7.464649  10.855091   # O_3
 296 1 5   0.000000   0.000000  10.451819   7.668016   # H_
 297 1 8   0.000000   0.000000   9.881616  11.514216   # O_1
 298 1 8   0.000000   0.000000  11.514218   9.881617   # O_1
 299 2 5   0.000000   0.000000   6.501408  10.895874   # H_
 300 1 8   0.000000   0.000000   1.933822  23.329590   # O_1
 301 1 6   0.000000   0.000000   3.152223  23.743789   # C_2
 302 1 8   0.000000   0.000000   3.566424  24.962189   # O_1
 303 1 7   0.000000   0.000000   4.209222  22.686789   # C_R
 304 1 7   0.000000   0.000000   3.891921  21.360789   # C_R
 305 1 7   0.000000   0.000000   5.535222  23.004088   # C_R
 306 1 7   0.000000   0.000000   4.827820  20.387188   # C_R
 307 1 5   0.000000   0.000000   2.996221  21.115990   # H_
 308 1 7   0.000000   0.000000   6.508821  22.068187   # C_R
 309 1 5   0.000000   0.000000   5.780023  23.899788   # H_
 310 1 7   0.000000   0.000000   6.204920  20.691087   # C_R
 311 1 7   0.000000   0.000000   7.243120  19.652886   # C_R
 312 1 5   0.000000   0.000000   4.558920  19.496888   # H_
 313 1 7   0.000000   0.000000   6.939219  18.275787   # C_R
 314 1 5   0.000000   0.000000   7.399122  22.337086   # H_
 315 1 7   0.000000   0.000000   8.620220  19.956785   # C_R
 316 1 7   0.000000   0.000000   7.912818  17.339886   # C_R
 317 1 5   0.000000   0.000000   6.048918  18.006887   # H_
 318 1 7   0.000000   0.000000   9.556119  18.983185   # C_R
 319 1 5   0.000000   0.000000   8.889121  20.847085   # H_
 320 1 7   0.000000   0.000000   9.238818  17.657185   # C_R
 321 1 6   0.000000   0.000000  10.295817  16.600184   # C_2
 322 2 9   0.000000   0.000000   7.464649  16.040909   # O_3
 323 1 5   0.000000   0.000000  10.451819  19.227984   # H_
 324 1 8   0.000000   0.000000   9.881616  15.381784   # O_1
 325 1 8   0.000000   0.000000  11.514218  17.014383   # O_1
 326 2 5   0.000000   0.000000   6.501408  16.000126   # H_
 327 1 8   0.000000   0.000000  24.962178  23.329590   # O_1
 328 1 6   0.000000   0.000000  23.743777  23.743789   # C_2
 329 1 8   0.000000   0.000000  23.329576  24.962189   # O_1
 330 1 7   0.000000   0.000000  22.686778  22.686789   # C_R
 331 1 7   0.000000  26.896000  23.004079  21.360789   # C_R
 332 1 7   0.000000   0.000000  21.360778  23.004088   # C_R
 333 1 7   0.000000  26.896000  22.068180  20.387188   # C_R
 334 1 5   0.000000  26.896000  23.899779  21.115990   # H_
 335 1 7   0.000000   0.000000  20.387179  22.068187   # C_R
 336 1 5   0.000000   0.000000  21.115977  23.899788   # H_
 337 1 7   0.000000   0.000000  20.691080  20.691087   # C_R
 338 1 7   0.000000  26.896000  19.652880  19.652886   # C_R
 339 1 5   0.000000  26.896000  22.337080  19.496888   # H_
 340 1 7   0.000000  26.896000  19.956781  18.275787   # C_R
 341 1 5   0.000000   0.000000  19.496878  22.337086   # H_
 342 1 7   0.000000   0.000000  18.275780  19.956785   # C_R
 343 1 7   0.000000  26.896000  18.983182  17.339886   # C_R
 344 1 5   0.000000  26.896000  20.847082  18.006887   # H_
 345 1 7   0.000000   0.000000  17.339881  18.983185   # C_R
 346 1 5   0.000000   0.000000  18.006879  20.847085   # H_
 347 1 7   0.000000  26.896000  17.657182  17.657185   # C_R
 348 1 6   0.000000  26.896000  16.600183  16.600184   # C_2
 349 2 9   0.000000  26.896000  19.431351  16.040909   # O_3
 350 1 5   0.000000   0.000000  16.444181  19.227984   # H_
 351 1 8   0.000000  26.896000  17.014384  15.381784   # O_1
 352 1 8   0.000000   0.000000  15.381782  17.014383   # O_1
 353 2 5   0.000000  26.896000  20.394592  16.000126   # H_
 354 1 8   0.000000   0.000000  24.962178   3.566410   # O_1
 355 1 6   0.000000  26.896000  23.743777   3.152211   # C_2
 356 1 8   0.000000  26.896000  23.329576   1.933811   # O_1
 357 1 7   0.000000  26.896000  22.686778   4.209211   # C_R
 358 1 7   0.000000   0.000000  23.004079   5.535211   # C_R
 359 1 7   0.000000  26.896000  21.360778   3.891912   # C_R
 360 1 7   0.000000   0.000000  22.068180   6.508812   # C_R
 361 1 5   0.000000   0.000000  23.899779   5.780010   # H_
 362 1 7   0.000000  26.896000  20.387179   4.827813   # C_R
 363 1 5   0.000000  26.896000  21.115977   2.996212   # H_
 364 1 7   0.000000  26.896000  20.691080   6.204913   # C_R
 365 1 7   0.000000   0.000000  19.652880   7.243114   # C_R
 366 1 5   0.000000   0.000000  22.337080   7.399112   # H_
 367 1 7   0.000000   0.000000  19.956781   8.620213   # C_R
 368 1 5   0.000000  26.896000  19.496878   4.558914   # H_
 369 1 7   0.000000  26.896000  18.275780   6.939215   # C_R
 370 1 7   0.000000   0.000000  18.983182   9.556114   # C_R
 371 1 5   0.000000   0.000000  20.847082   8.889113   # H_
 372 1 7   0.000000  26.896000  17.339881   7.912815   # C_R
 373 1 5   0.000000  26.896000  18.006879   6.048915   # H_
 374 1 7   0.000000   0.000000  17.657182   9.238815   # C_R
 375 1 6   0.000000   0.000000  16.600183  10.295816   # C_2
 376 2 9   0.000000   0.000000  19.431351  10.855091   # O_3
 377 1 5   0.000000  26.896000  16.444181   7.668016   # H_
 378 1 8   0.000000   0.000000  17.014384  11.514216   # O_1
 379 1 8   0.000000   0.000000  15.381782   9.881617   # O_1
 380 2 5   0.000000   0.000000  20.394592  10.895874   # H_
 381 1 8   0.000000   3.566410  13.448000  15.381822   # O_1
 382 1 6   0.000000   3.152211  13.448000  16.600223   # C_2
 383 1 8   0.000000   1.933811  13.448000  17.014424   # O_1
 384 1 7   0.000000   4.209211  13.448000  17.657222   # C_R
 385 1 7   0.000000   5.535211  13.448000  17.339921   # C_R
 386 1 7   0.000000   3.891912  13.448000  18.983222   # C_R
 387 1 7   0.000000   6.508812  13.448000  18.275820   # C_R
 388 1 5   0.000000   5.780010  13.448000  16.444221   # H_
 389 1 7   0.000000   4.827813  13.448000  19.956821   # C_R
 390 1 5   0.000000   2.996212  13.448000  19.228023   # H_
 391 1 7   0.000000   6.204913  13.448000  19.652920   # C_R
 392 1 7   0.000000   7.243114  13.448000  20.691120   # C_R
 393 1 5   0.000000   7.399112  13.448000  18.006920   # H_
 394 1 7   0.000000   8.620213  13.448000  20.387219   # C_R
 395 1 5   0.000000   4.558914  13.448000  20.847122   # H_
 396 1 7   0.000000   6.939215  13.448000  22.068220   # C_R
 397 1 7   0.000000   9.556114  13.448000  21.360818   # C_R
 398 1 5   0.000000   8.889113  13.448000  19.496918   # H_
 399 1 7   0.000000   7.912815  13.448000  23.004119   # C_R
 400 1 5   0.000000   6.048915  13.448000  22.337121   # H_
 401 1 7   0.000000   9.238815  13.448000  22.686818   # C_R
 402 1 6   0.000000  10.295816  13.448000  23.743817   # C_2
 403 2 9   0.000000  10.855091  13.448000  20.912649   # O_3
 404 1 5   0.000000   7.668016  13.448000  23.899819   # H_
 405 1 8   0.000000  11.514216  13.448000  23.329616   # O_1
 406 1 8   0.000000   9.881617  13.448000  24.962218   # O_1
 407 2 5   0.000000  10.895874  13.448000  19.949408   # H_
 408 1 8   0.000000  23.329590  13.448000  15.381822   # O_1
 409 1 6   0.000000  23.743789  13.448000  16.600223   # C_2
 410 1 8   0.000000  24.962189  13.448000  17.014424   # O_1
 411 1 7   0.000000  22.686789  13.448000  17.657222   # C_R
 412 1 7   0.000000  21.360789  13.448000  17.339921   # C_R
 413 1 7   0.000000  23.004088  13.448000  18.983222   # C_R
 414 1 7   0.000000  20.387188  13.448000  18.275820   # C_R
 415 1 5   0.000000  21.115990  13.448000  16.444221   # H_
 416 1 7   0.000000  22.068187  13.448000  19.956821   # C_R
 417 1 5   0.000000  23.899788  13.448000  19.228023   # H_
 418 1 7   0.000000  20.691087  13.448000  19.652920   # C_R
 419 1 7   0.000000  19.652886  13.448000  20.691120   # C_R
 420 1 5   0.000000  19.496888  13.448000  18.006920   # H_
 421 1 7   0.000000  18.275787  13.448000  20.387219   # C_R
 422 1 5   0.000000  22.337086  13.448000  20.847122   # H_
 423 1 7   0.000000  19.956785  13.448000  22.068220   # C_R
 424 1 7   0.000000  17.339886  13.448000  21.360818   # C_R
 425 1 5   0.000000  18.006887  13.448000  19.496918   # H_
 426 1 7   0.000000  18.983185  13.448000  23.004119   # C_R
 427 1 5   0.000000  20.847085  13.448000  22.337121   # H_
 428 1 7   0.000000  17.657185  13.448000  22.686818   # C_R
 429 1 6   0.000000  16.600184  13.448000  23.743817   # C_2
 430 2 9   0.000000  16.040909  13.448000  20.912649   # O_3
 431 1 5   0.000000  19.227984  13.448000  23.899819   # H_
 432 1 8   0.000000  15.381784  13.448000  23.329616   # O_1
 433 1 8   0.000000  17.014383  13.448000  24.962218   # O_1
 434 2 5   0.000000  16.000126  13.448000  19.949408   # H_
 435 1 8   0.000000  23.329590  13.448000  11.514178   # O_1
 436 1 6   0.000000  23.743789  13.448000  10.295777   # C_2
 437 1 8   0.000000  24.962189  13.448000   9.881576   # O_1
 438 1 7   0.000000  22.686789  13.448000   9.238778   # C_R
 439 1 7   0.000000  21.360789  13.448000   9.556079   # C_R
 440 1 7   0.000000  23.004088  13.448000   7.912778   # C_R
 441 1 7   0.000000  20.387188  13.448000   8.620180   # C_R
 442 1 5   0.000000  21.115990  13.448000  10.451779   # H_
 443 1 7   0.000000  22.068187  13.448000   6.939179   # C_R
 444 1 5   0.000000  23.899788  13.448000   7.667977   # H_
 445 1 7   0.000000  20.691087  13.448000   7.243080   # C_R
 446 1 7   0.000000  19.652886  13.448000   6.204880   # C_R
 447 1 5   0.000000  19.496888  13.448000   8.889080   # H_
 448 1 7   0.000000  18.275787  13.448000   6.508781   # C_R
 449 1 5   0.000000  22.337086  13.448000   6.048878   # H_
 450 1 7   0.000000  19.956785  13.448000   4.827780   # C_R
 451 1 7   0.000000  17.339886  13.448000   5.535182   # C_R
 452 1 5   0.000000  18.006887  13.448000   7.399082   # H_
 453 1 7   0.000000  18.983185  13.448000   3.891881   # C_R
 454 1 5   0.000000  20.847085  13.448000   4.558879   # H_
 455 1 7   0.000000  17.657185  13.448000   4.209182   # C_R
 456 1 6   0.000000  16.600184  13.448000   3.152183   # C_2
 457 2 9   0.000000  16.040909  13.448000   5.983351   # O_3
 458 1 5   0.000000  19.227984  13.448000   2.996181   # H_
 459 1 8   0.000000  15.381784  13.448000   3.566384   # O_1
 460 1 8   0.000000  17.014383  13.448000   1.933782   # O_1
 461 2 5   0.000000  16.000126  13.448000   6.946592   # H_
 462 1 8   0.000000   3.566410  13.448000  11.514178   # O_1
 463 1 6   0.000000   3.152211  13.448000  10.295777   # C_2
 464 1 8   0.000000   1.933811  13.448000   9.881576   # O_1
 465 1 7   0.000000   4.209211  13.448000   9.238778   # C_R
 466 1 7   0.000000   5.535211  13.448000   9.556079   # C_R
 467 1 7   0.000000   3.891912  13.448000   7.912778   # C_R
 468 1 7   0.000000   6.508812  13.448000   8.620180   # C_R
 469 1 5   0.000000   5.780010  13.448000  10.451779   # H_
 470 1 7   0.000000   4.827813  13.448000   6.939179   # C_R
 471 1 5   0.000000   2.996212  13.448000   7.667977   # H_
 472 1 7   0.000000   6.204913  13.448000   7.243080   # C_R
 473 1 7   0.000000   7.243114  13.448000   6.204880   # C_R
 474 1 5   0.000000   7.399112  13.448000   8.889080   # H_
 475 1 7   0.000000   8.620213  13.448000   6.508781   # C_R
 476 1 5   0.000000   4.558914  13.448000   6.048878   # H_