 (written by mofun)

1448 atoms
816 bonds
1584 angles
2160 dihedrals
0 impropers

10 atom types
4 bond types
7 angle types
11 dihedral types
   0.000000  26.896000 xlo xhi
   0.000000  26.896000 ylo yhi
   0.000000  26.896000 zlo zhi

Masses

 1 91.2240   # Zr3+4
 2 15.9994   # O_3
 3 12.0107   # C_3
 4 1.0079   # H_
 5 1.0079   # H_
 6 12.0107   # C_2
 7 12.0107   # C_3
 8 12.0107   # C_R
 9 15.9994   # O_1
 10 15.9994   # O_3

Pair Coeffs

 1   0.069000   2.783168 # Zr3+4
 2   0.060000   3.118146 # O_3
 3   0.105000   3.430851 # C_3
 4   0.044000   2.571134 # H_
 5 0.044000 2.571134   # H_
 6 0.105000 3.430851   # C_2
 7 0.105000 3.430851   # C_3
 8 0.105000 3.430851   # C_R
 9 0.060000 3.118146   # O_1
 10 0.060000 3.118146   # O_3

Bond Coeffs

 1 572.510195 1.366311   # C_R O_3
 2 539.248552 1.393845   # C_3 O_3
 3 349.795899 1.514000   # C_3 C_3
 4 331.069389 1.109401   # C_3 H_

Angle Coeffs

 1 cosine/periodic  271.563462  -1  3   # C_R C_R O_3
 2 fourier  320.948910  0.300235  0.267331  0.266745   # C_3 O_3 C_R
 3 fourier  290.032745  0.343737  0.374972  0.281246   # C_3 C_3 O_3
 4 fourier  165.777838  0.343737  0.374972  0.281246   # H_ C_3 O_3
 5 fourier  117.318683  0.343737  0.374972  0.281246   # C_3 C_3 H_
 6 fourier  75.498766  0.343737  0.374972  0.281246   # H_ C_3 H_
 7 fourier  214.211821  0.343737  0.374972  0.281246   # C_3 C_3 C_3

Dihedral Coeffs

 1 harmonic 3.368555 -1 2   # C_2 C_R C_R O_3 M=4
 2 harmonic 3.368555 -1 2   # C_R C_R C_R O_3 M=4
 3 harmonic 3.368555 -1 2   # H_ C_R C_R O_3 M=4
 4 harmonic 2.500000 1 2   # C_3 O_3 C_R C_R M=2
 5 harmonic 0.032550 1 3   # C_3 C_3 O_3 C_R M=3
 6 harmonic 0.032550 1 3   # C_R O_3 C_3 H_ M=3
 7 harmonic 0.117722 1 3   # H_ C_3 C_3 O_3 M=9
 8 harmonic 0.117722 1 3   # C_3 C_3 C_3 O_3 M=9
 9 harmonic 0.117722 1 3   # H_ C_3 C_3 H_ M=9
 10 harmonic 0.117722 1 3   # C_3 C_3 C_3 H_ M=9
 11 harmonic 0.117722 1 3   # C_3 C_3 C_3 C_3 M=9

Atoms

 1 1 1   0.000000   2.475508   0.000000   0.000000   # Zr3+4
 2 1 1   0.000000  24.420492   0.000000   0.000000   # Zr3+4
 3 1 1   0.000000   0.000000   2.475508   0.000000   # Zr3+4
 4 1 1   0.000000   0.000000  24.420492   0.000000   # Zr3+4
 5 1 1   0.000000   0.000000   0.000000   2.475508   # Zr3+4
 6 1 1   0.000000   0.000000   0.000000  24.420492   # Zr3+4
 7 1 1   0.000000   2.475508  13.448000  13.448000   # Zr3+4
 8 1 1   0.000000  24.420492  13.448000  13.448000   # Zr3+4
 9 1 1   0.000000   0.000000  15.923508  13.448000   # Zr3+4
 10 1 1   0.000000   0.000000  10.972492  13.448000   # Zr3+4
 11 1 1   0.000000   0.000000  13.448000  15.923508   # Zr3+4
 12 1 1   0.000000   0.000000  13.448000  10.972492   # Zr3+4
 13 1 1   0.000000  15.923508   0.000000  13.448000   # Zr3+4
 14 1 1   0.000000  10.972492   0.000000  13.448000   # Zr3+4
 15 1 1   0.000000  13.448000   2.475508  13.448000   # Zr3+4
 16 1 1   0.000000  13.448000  24.420492  13.448000   # Zr3+4
 17 1 1   0.000000  13.448000   0.000000  15.923508   # Zr3+4
 18 1 1   0.000000  13.448000   0.000000  10.972492   # Zr3+4
 19 1 1   0.000000  15.923508  13.448000   0.000000   # Zr3+4
 20 1 1   0.000000  10.972492  13.448000   0.000000   # Zr3+4
 21 1 1   0.000000  13.448000  15.923508   0.000000   # Zr3+4
 22 1 1   0.000000  13.448000  10.972492   0.000000   # Zr3+4
 23 1 1   0.000000  13.448000  13.448000   2.475508   # Zr3+4
 24 1 1   0.000000  13.448000  13.448000  24.420492   # Zr3+4
 25 1 2   0.000000   1.221078   1.221078   1.221078   # O_3
 26 1 2   0.000000  25.674922  25.674922   1.221078   # O_3
 27 1 2   0.000000  25.674922   1.221078  25.674922   # O_3
 28 1 2   0.000000   1.221078  25.674922  25.674922   # O_3
 29 1 2   0.000000   1.221078   1.221078  25.674922   # O_3
 30 1 2   0.000000  25.674922  25.674922  25.674922   # O_3
 31 1 2   0.000000   1.221078  25.674922   1.221078   # O_3
 32 1 2   0.000000  25.674922   1.221078   1.221078   # O_3
 33 1 2   0.000000   1.221078  14.669078  14.669078   # O_3
 34 1 2   0.000000  25.674922  12.226922  14.669078   # O_3
 35 1 2   0.000000  25.674922  14.669078  12.226922   # O_3
 36 1 2   0.000000   1.221078  12.226922  12.226922   # O_3
 37 1 2   0.000000   1.221078  14.669078  12.226922   # O_3
 38 1 2   0.000000  25.674922  12.226922  12.226922   # O_3
 39 1 2   0.000000   1.221078  12.226922  14.669078   # O_3
 40 1 2   0.000000  25.674922  14.669078  14.669078   # O_3
 41 1 2   0.000000  14.669078   1.221078  14.669078   # O_3
 42 1 2   0.000000  12.226922  25.674922  14.669078   # O_3
 43 1 2   0.000000  12.226922   1.221078  12.226922   # O_3
 44 1 2   0.000000  14.669078  25.674922  12.226922   # O_3
 45 1 2   0.000000  14.669078   1.221078  12.226922   # O_3
 46 1 2   0.000000  12.226922  25.674922  12.226922   # O_3
 47 1 2   0.000000  14.669078  25.674922  14.669078   # O_3
 48 1 2   0.000000  12.226922   1.221078  14.669078   # O_3
 49 1 2   0.000000  14.669078  14.669078   1.221078   # O_3
 50 1 2   0.000000  12.226922  12.226922   1.221078   # O_3
 51 1 2   0.000000  12.226922  14.669078  25.674922   # O_3
 52 1 2   0.000000  14.669078  12.226922  25.674922   # O_3
 53 1 2   0.000000  14.669078  14.669078  25.674922   # O_3
 54 1 2   0.000000  12.226922  12.226922  25.674922   # O_3
 55 1 2   0.000000  14.669078  12.226922   1.221078   # O_3
 56 1 2   0.000000  12.226922  14.669078   1.221078   # O_3
 57 1 9   0.000000   3.566410   0.000000   1.933822   # O_1
 58 1 6   0.000000   3.152211   0.000000   3.152223   # C_2
 59 1 9   0.000000   1.933811  26.896000   3.566424   # O_1
 60 1 8   0.000000   4.209211   0.000000   4.209222   # C_R
 61 1 8   0.000000   5.535211   0.000000   3.891921   # C_R
 62 1 8   0.000000   3.891912   0.000000   5.535222   # C_R
 63 1 8   0.000000   6.508812   0.000000   4.827820   # C_R
 64 1 5   0.000000   5.780010  26.896000   2.996221   # H_
 65 1 8   0.000000   4.827813  26.896000   6.508821   # C_R
 66 2 10   0.000000   2.996212  26.896000   5.780023   # O_3
 67 1 8   0.000000   6.204913   0.000000   6.204920   # C_R
 68 1 8   0.000000   7.243114  26.896000   7.243120   # C_R
 69 1 5   0.000000   7.399112   0.000000   4.558920   # H_
 70 1 8   0.000000   8.620213   0.000000   6.939219   # C_R
 71 1 5   0.000000   4.558914   0.000000   7.399122   # H_
 72 1 8   0.000000   6.939215   0.000000   8.620220   # C_R
 73 1 8   0.000000   9.556114   0.000000   7.912818   # C_R
 74 1 5   0.000000   8.889113  26.896000   6.048918   # H_
 75 1 8   0.000000   7.912815   0.000000   9.556119   # C_R
 76 1 5   0.000000   6.048915   0.000000   8.889121   # H_
 77 1 8   0.000000   9.238815  26.896000   9.238818   # C_R
 78 1 6   0.000000  10.295816  26.896000  10.295817   # C_2
 79 2 10   0.000000  10.451814   0.000000   7.668017   # O_3
 80 1 5   0.000000   7.668016   0.000000  10.451819   # H_
 81 1 9   0.000000  11.514216   0.000000   9.881616   # O_1
 82 1 9   0.000000   9.881617   0.000000  11.514218   # O_1
 83 2 7   0.000000  11.230018   0.000933   6.470102   # C_3
 84 2 7   0.000000   1.619342   0.002057   6.040127   # C_3
 85 2 7   0.000000  12.720441   0.000006   6.802996   # C_3
 86 2 5   0.000000  10.998233   0.895639   5.875120   # H_
 87 2 5   0.000000  10.997700  26.003688   5.873129   # H_
 88 2 5   0.000000  12.959465   0.876268   7.417558   # H_
 89 2 7   0.000000  13.555652   0.002448   5.522298   # C_3
 90 2 5   0.000000  12.959177  26.017182   7.414020   # H_
 91 2 5   0.000000  13.301259   0.884816   4.921936   # H_
 92 2 5   0.000000  13.302607  26.017480   4.919319   # H_
 93 2 7   0.000000  15.053686   0.003299   5.816795   # C_3
 94 2 7   0.000000   1.319398   0.025797   7.543890   # C_3
 95 2 5   0.000000   1.133527  26.024638   5.588197   # H_
 96 2 5   0.000000   1.184870   0.915256   5.614661   # H_
 97 2 7   0.000000   1.171738  25.531341   8.171746   # C_3
 98 2 5   0.000000   0.360138   0.539778   7.686190   # H_
 99 2 5   0.000000   2.079397   0.601563   8.083934   # H_
 100 2 5   0.000000   0.396381  24.969843   7.635588   # H_
 101 2 5   0.000000   0.807341  25.659824   9.198796   # H_
 102 2 7   0.000000   2.464963  24.721638   8.201776   # C_3
 103 2 5   0.000000  15.316565   0.885463   6.411669   # H_
 104 2 7   0.000000  15.866161   0.006556   4.530676   # C_3
 105 2 5   0.000000  15.318344  26.015496   6.408438   # H_
 106 2 5   0.000000   2.822272  24.536167   7.183958   # H_
 107 2 7   0.000000   2.263312  23.383051   8.894830   # C_3
 108 2 5   0.000000   3.241706  25.283403   8.732007   # H_
 109 2 5   0.000000   1.519598  22.777479   8.367058   # H_
 110 2 5   0.000000   1.924943  23.521635   9.926598   # H_
 111 2 5   0.000000   3.203637  22.823639   8.917477   # H_
 112 2 5   0.000000  15.643844   0.893511   3.928448   # H_
 113 2 5   0.000000  15.648263  26.015607   3.926835   # H_
 114 2 5   0.000000  16.936787   0.009036   4.756898   # H_
 115 1 9   0.000000  23.329590   0.000000   1.933822   # O_1
 116 1 6   0.000000  23.743789   0.000000   3.152223   # C_2
 117 1 9   0.000000  24.962189   0.000000   3.566424   # O_1
 118 1 8   0.000000  22.686789   0.000000   4.209222   # C_R
 119 1 8   0.000000  21.360789  26.896000   3.891921   # C_R
 120 1 8   0.000000  23.004088   0.000000   5.535222   # C_R
 121 1 8   0.000000  20.387188  26.896000   4.827820   # C_R
 122 1 5   0.000000  21.115990  26.896000   2.996221   # H_
 123 1 8   0.000000  22.068187   0.000000   6.508821   # C_R
 124 2 10   0.000000  23.899788   0.000000   5.780023   # O_3
 125 1 8   0.000000  20.691087   0.000000   6.204920   # C_R
 126 1 8   0.000000  19.652886  26.896000   7.243120   # C_R
 127 1 5   0.000000  19.496888  26.896000   4.558920   # H_
 128 1 8   0.000000  18.275787  26.896000   6.939219   # C_R
 129 1 5   0.000000  22.337086   0.000000   7.399122   # H_
 130 1 8   0.000000  19.956785   0.000000   8.620220   # C_R
 131 1 8   0.000000  17.339886  26.896000   7.912818   # C_R
 132 1 5   0.000000  18.006887  26.896000   6.048918   # H_
 133 1 8   0.000000  18.983185   0.000000   9.556119   # C_R
 134 1 5   0.000000  20.847085   0.000000   8.889121   # H_
 135 1 8   0.000000  17.657185  26.896000   9.238818   # C_R
 136 1 6   0.000000  16.600184  26.896000  10.295817   # C_2
 137 2 10   0.000000  16.444186  26.896000   7.668017   # O_3
 138 1 5   0.000000  19.227984   0.000000  10.451819   # H_
 139 1 9   0.000000  15.381784  26.896000   9.881616   # O_1
 140 1 9   0.000000  17.014383  26.896000  11.514218   # O_1
 141 2 7   0.000000  15.665982  26.895067   6.470102   # C_3
 142 2 7   0.000000  25.276658  26.893943   6.040127   # C_3
 143 2 7   0.000000  14.175559  26.895994   6.802996   # C_3
 144 2 5   0.000000  15.897767  26.000361   5.875120   # H_
 145 2 5   0.000000  15.898300   0.892312   5.873129   # H_
 146 2 5   0.000000  13.936535  26.019732   7.417558   # H_
 147 2 7   0.000000  13.340348  26.893552   5.522298   # C_3
 148 2 5   0.000000  13.936823   0.878818   7.414020   # H_
 149 2 5   0.000000  13.594741  26.011184   4.921936   # H_
 150 2 5   0.000000  13.593393   0.878520   4.919319   # H_
 151 2 7   0.000000  11.842314  26.892701   5.816795   # C_3
 152 2 7   0.000000  25.576602  26.870203   7.543890   # C_3
 153 2 5   0.000000  25.762473   0.871362   5.588197   # H_
 154 2 5   0.000000  25.711130  25.980744   5.614661   # H_
 155 2 7   0.000000  25.724262   1.364659   8.171746   # C_3
 156 2 5   0.000000  26.535862  26.356222   7.686190   # H_
 157 2 5   0.000000  24.816603  26.294437   8.083934   # H_
 158 2 5   0.000000  26.499619   1.926157   7.635588   # H_
 159 2 5   0.000000  26.088659   1.236176   9.198796   # H_
 160 2 7   0.000000  24.431037   2.174362   8.201776   # C_3
 161 2 5   0.000000  11.579435  26.010537   6.411669   # H_
 162 2 7   0.000000  11.029839  26.889444   4.530676   # C_3
 163 2 5   0.000000  11.577656   0.880504   6.408438   # H_
 164 2 5   0.000000  24.073728   2.359833   7.183958   # H_
 165 2 7   0.000000  24.632688   3.512949   8.894830   # C_3
 166 2 5   0.000000  23.654294   1.612597   8.732007   # H_
 167 2 5   0.000000  25.376402   4.118521   8.367058   # H_
 168 2 5   0.000000  24.971057   3.374365   9.926598   # H_
 169 2 5   0.000000  23.692363   4.072361   8.917477   # H_
 170 2 5   0.000000  11.252156  26.002489   3.928448   # H_
 171 2 5   0.000000  11.247737   0.880393   3.926835   # H_
 172 2 5   0.000000   9.959213  26.886964   4.756898   # H_
 173 1 9   0.000000  23.329590   0.000000  24.962178   # O_1
 174 1 6   0.000000  23.743789   0.000000  23.743777   # C_2
 175 1 9   0.000000  24.962189   0.000000  23.329576   # O_1
 176 1 8   0.000000  22.686789   0.000000  22.686778   # C_R
 177 1 8   0.000000  21.360789  26.896000  23.004079   # C_R
 178 1 8   0.000000  23.004088   0.000000  21.360778   # C_R
 179 1 8   0.000000  20.387188  26.896000  22.068180   # C_R
 180 1 5   0.000000  21.115990  26.896000  23.899779   # H_
 181 1 8   0.000000  22.068187   0.000000  20.387179   # C_R
 182 2 10   0.000000  23.899788   0.000000  21.115977   # O_3
 183 1 8   0.000000  20.691087   0.000000  20.691080   # C_R
 184 1 8   0.000000  19.652886  26.896000  19.652880   # C_R
 185 1 5   0.000000  19.496888  26.896000  22.337080   # H_
 186 1 8   0.000000  18.275787  26.896000  19.956781   # C_R
 187 1 5   0.000000  22.337086   0.000000  19.496878   # H_
 188 1 8   0.000000  19.956785   0.000000  18.275780   # C_R
 189 1 8   0.000000  17.339886  26.896000  18.983182   # C_R
 190 1 5   0.000000  18.006887  26.896000  20.847082   # H_
 191 1 8   0.000000  18.983185   0.000000  17.339881   # C_R
 192 1 5   0.000000  20.847085   0.000000  18.006879   # H_
 193 1 8   0.000000  17.657185  26.896000  17.657182   # C_R
 194 1 6   0.000000  16.600184  26.896000  16.600183   # C_2
 195 2 10   0.000000  16.444186  26.896000  19.227983   # O_3
 196 1 5   0.000000  19.227984   0.000000  16.444181   # H_
 197 1 9   0.000000  15.381784  26.896000  17.014384   # O_1
 198 1 9   0.000000  17.014383  26.896000  15.381782   # O_1
 199 2 7   0.000000  15.665982   0.000933  20.425898   # C_3
 200 2 7   0.000000  25.276658   0.002057  20.855873   # C_3
 201 2 7   0.000000  14.175559   0.000006  20.093004   # C_3
 202 2 5   0.000000  15.897767   0.895639  21.020880   # H_
 203 2 5   0.000000  15.898300  26.003688  21.022871   # H_
 204 2 5   0.000000  13.936535   0.876268  19.478442   # H_
 205 2 7   0.000000  13.340348   0.002448  21.373702   # C_3
 206 2 5   0.000000  13.936823  26.017182  19.481980   # H_
 207 2 5   0.000000  13.594741   0.884816  21.974064   # H_
 208 2 5   0.000000  13.593393  26.017480  21.976681   # H_
 209 2 7   0.000000  11.842314   0.003299  21.079205   # C_3
 210 2 7   0.000000  25.576602   0.025797  19.352110   # C_3
 211 2 5   0.000000  25.762473  26.024638  21.307803   # H_
 212 2 5   0.000000  25.711130   0.915256  21.281339   # H_
 213 2 7   0.000000  25.724262  25.531341  18.724254   # C_3
 214 2 5   0.000000  26.535862   0.539778  19.209810   # H_
 215 2 5   0.000000  24.816603   0.601563  18.812066   # H_
 216 2 5   0.000000  26.499619  24.969843  19.260412   # H_
 217 2 5   0.000000  26.088659  25.659824  17.697204   # H_
 218 2 7   0.000000  24.431037  24.721638  18.694224   # C_3
 219 2 5   0.000000  11.579435   0.885463  20.484331   # H_
 220 2 7   0.000000  11.029839   0.006556  22.365324   # C_3
 221 2 5   0.000000  11.577656  26.015496  20.487562   # H_
 222 2 5   0.000000  24.073728  24.536167  19.712042   # H_
 223 2 7   0.000000  24.632688  23.383051  18.001170   # C_3
 224 2 5   0.000000  23.654294  25.283403  18.163993   # H_
 225 2 5   0.000000  25.376402  22.777479  18.528942   # H_
 226 2 5   0.000000  24.971057  23.521635  16.969402   # H_
 227 2 5   0.000000  23.692363  22.823639  17.978523   # H_
 228 2 5   0.000000  11.252156   0.893511  22.967552   # H_
 229 2 5   0.000000  11.247737  26.015607  22.969165   # H_
 230 2 5   0.000000   9.959213   0.009036  22.139102   # H_
 231 1 9   0.000000   3.566410   0.000000  24.962178   # O_1
 232 1 6   0.000000   3.152211   0.000000  23.743777   # C_2
 233 1 9   0.000000   1.933811   0.000000  23.329576   # O_1
 234 1 8   0.000000   4.209211   0.000000  22.686778   # C_R
 235 1 8   0.000000   5.535211   0.000000  23.004079   # C_R
 236 1 8   0.000000   3.891912   0.000000  21.360778   # C_R
 237 1 8   0.000000   6.508812   0.000000  22.068180   # C_R
 238 1 5   0.000000   5.780010   0.000000  23.899779   # H_
 239 1 8   0.000000   4.827813   0.000000  20.387179   # C_R
 240 2 10   0.000000   2.996212   0.000000  21.115977   # O_3
 241 1 8   0.000000   6.204913   0.000000  20.691080   # C_R
 242 1 8   0.000000   7.243114   0.000000  19.652880   # C_R
 243 1 5   0.000000   7.399112   0.000000  22.337080   # H_
 244 1 8   0.000000   8.620213   0.000000  19.956781   # C_R
 245 1 5   0.000000   4.558914   0.000000  19.496878   # H_
 246 1 8   0.000000   6.939215   0.000000  18.275780   # C_R
 247 1 8   0.000000   9.556114   0.000000  18.983182   # C_R
 248 1 5   0.000000   8.889113   0.000000  20.847082   # H_
 249 1 8   0.000000   7.912815   0.000000  17.339881   # C_R
 250 1 5   0.000000   6.048915   0.000000  18.006879   # H_
 251 1 8   0.000000   9.238815   0.000000  17.657182   # C_R
 252 1 6   0.000000  10.295816   0.000000  16.600183   # C_2
 253 2 10   0.000000  10.451814   0.000000  19.227983   # O_3
 254 1 5   0.000000   7.668016   0.000000  16.444181   # H_
 255 1 9   0.000000  11.514216   0.000000  17.014384   # O_1
 256 1 9   0.000000   9.881617   0.000000  15.381782   # O_1
 257 2 7   0.000000  11.230018  26.895067  20.425898   # C_3
 258 2 7   0.000000   1.619342  26.893943  20.855873   # C_3
 259 2 7   0.000000  12.720441  26.895994  20.093004   # C_3
 260 2 5   0.000000  10.998233  26.000361  21.020880   # H_
 261 2 5   0.000000  10.997700   0.892312  21.022871   # H_
 262 2 5   0.000000  12.959465  26.019732  19.478442   # H_
 263 2 7   0.000000  13.555652  26.893552  21.373702   # C_3
 264 2 5   0.000000  12.959177   0.878818  19.481980   # H_
 265 2 5   0.000000  13.301259  26.011184  21.974064   # H_
 266 2 5   0.000000  13.302607   0.878520  21.976681   # H_
 267 2 7   0.000000  15.053686  26.892701  21.079205   # C_3
 268 2 7   0.000000   1.319398  26.870203  19.352110   # C_3
 269 2 5   0.000000   1.133527   0.871362  21.307803   # H_
 270 2 5   0.000000   1.184870  25.980744  21.281339   # H_
 271 2 7   0.000000   1.171738   1.364659  18.724254   # C_3
 272 2 5   0.000000   0.360138  26.356222  19.209810   # H_
 273 2 5   0.000000   2.079397  26.294437  18.812066   # H_
 274 2 5   0.000000   0.396381   1.926157  19.260412   # H_
 275 2 5   0.000000   0.807341   1.236176  17.697204   # H_
 276 2 7   0.000000   2.464963   2.174362  18.694224   # C_3
 277 2 5   0.000000  15.316565  26.010537  20.484331   # H_
 278 2 7   0.000000  15.866161  26.889444  22.365324   # C_3
 279 2 5   0.000000  15.318344   0.880504  20.487562   # H_
 280 2 5   0.000000   2.822272   2.359833  19.712042   # H_
 281 2 7   0.000000   2.263312   3.512949  18.001170   # C_3
 282 2 5   0.000000   3.241706   1.612597  18.163993   # H_
 283 2 5   0.000000   1.519598   4.118521  18.528942   # H_
 284 2 5   0.000000   1.924943   3.374365  16.969402   # H_
 285 2 5   0.000000   3.203637   4.072361  17.978523   # H_
 286 2 5   0.000000  15.643844  26.002489  22.967552   # H_
 287 2 5   0.000000  15.648263   0.880393  22.969165   # H_
 288 2 5   0.000000  16.936787  26.886964  22.139102   # H_
 289 1 9   0.000000   1.933822   3.566410   0.000000   # O_1
 290 1 6   0.000000   3.152223   3.152211   0.000000   # C_2
 291 1 9   0.000000   3.566424   1.933811   0.000000   # O_1
 292 1 8   0.000000   4.209222   4.209211   0.000000   # C_R
 293 1 8   0.000000   3.891921   5.535211  26.896000   # C_R
 294 1 8   0.000000   5.535222   3.891912   0.000000   # C_R
 295 1 8   0.000000   4.827820   6.508812  26.896000   # C_R
 296 1 5   0.000000   2.996221   5.780010  26.896000   # H_
 297 1 8   0.000000   6.508821   4.827813   0.000000   # C_R
 298 2 10   0.000000   5.780023   2.996212   0.000000   # O_3
 299 1 8   0.000000   6.204920   6.204913   0.000000   # C_R
 300 1 8   0.000000   7.243120   7.243114  26.896000   # C_R
 301 1 5   0.000000   4.558920   7.399112  26.896000   # H_
 302 1 8   0.000000   6.939219   8.620213  26.896000   # C_R
 303 1 5   0.000000   7.399122   4.558914   0.000000   # H_
 304 1 8   0.000000   8.620220   6.939215   0.000000   # C_R
 305 1 8   0.000000   7.912818   9.556114  26.896000   # C_R
 306 1 5   0.000000   6.048918   8.889113  26.896000   # H_
 307 1 8   0.000000   9.556119   7.912815   0.000000   # C_R
 308 1 5   0.000000   8.889121   6.048915   0.000000   # H_
 309 1 8   0.000000   9.238818   9.238815  26.896000   # C_R
 310 1 6   0.000000  10.295817  10.295816  26.896000   # C_2
 311 2 10   0.000000   7.668017  10.451814  26.896000   # O_3
 312 1 5   0.000000  10.451819   7.668016   0.000000   # H_
 313 1 9   0.000000   9.881616  11.514216  26.896000   # O_1
 314 1 9   0.000000  11.514218   9.881617  26.896000   # O_1
 315 2 7   0.000000   6.470102  11.230018   0.000933   # C_3
 316 2 7   0.000000   6.040127   1.619342   0.002057   # C_3
 317 2 7   0.000000   6.802996  12.720441   0.000006   # C_3
 318 2 5   0.000000   5.875120  10.998233   0.895639   # H_
 319 2 5   0.000000   5.873129  10.997700  26.003688   # H_
 320 2 5   0.000000   7.417558  12.959465   0.876268   # H_
 321 2 7   0.000000   5.522298  13.555652   0.002448   # C_3
 322 2 5   0.000000   7.414020  12.959177  26.017182   # H_
 323 2 5   0.000000   4.921936  13.301259   0.884816   # H_
 324 2 5   0.000000   4.919319  13.302607  26.017480   # H_
 325 2 7   0.000000   5.816795  15.053686   0.003299   # C_3
 326 2 7   0.000000   7.543890   1.319398   0.025797   # C_3
 327 2 5   0.000000   5.588197   1.133527  26.024638   # H_
 328 2 5   0.000000   5.614661   1.184870   0.915256   # H_
 329 2 7   0.000000   8.171746   1.171738  25.531341   # C_3
 330 2 5   0.000000   7.686190   0.360138   0.539778   # H_
 331 2 5   0.000000   8.083934   2.079397   0.601563   # H_
 332 2 5   0.000000   7.635588   0.396381  24.969843   # H_
 333 2 5   0.000000   9.198796   0.807341  25.659824   # H_
 334 2 7   0.000000   8.201776   2.464963  24.721638   # C_3
 335 2 5   0.000000   6.411669  15.316565   0.885463   # H_
 336 2 7   0.000000   4.530676  15.866161   0.006556   # C_3
 337 2 5   0.000000   6.408438  15.318344  26.015496   # H_
 338 2 5   0.000000   7.183958   2.822272  24.536167   # H_
 339 2 7   0.000000   8.894830   2.263312  23.383051   # C_3
 340 2 5   0.000000   8.732007   3.241706  25.283403   # H_
 341 2 5   0.000000   8.367058   1.519598  22.777479   # H_
 342 2 5   0.000000   9.926598   1.924943  23.521635   # H_
 343 2 5   0.000000   8.917477   3.203637  22.823639   # H_
 344 2 5   0.000000   3.928448  15.643844   0.893511   # H_
 345 2 5   0.000000   3.926835  15.648263  26.015607   # H_
 346 2 5   0.000000   4.756898  16.936787   0.009036   # H_
 347 1 9   0.000000   1.933822  23.329590   0.000000   # O_1
 348 1 6   0.000000   3.152223  23.743789   0.000000   # C_2
 349 1 9   0.000000   3.566424  24.962189   0.000000   # O_1
 350 1 8   0.000000   4.209222  22.686789   0.000000   # C_R
 351 1 8   0.000000   3.891921  21.360789   0.000000   # C_R
 352 1 8   0.000000   5.535222  23.004088   0.000000   # C_R
 353 1 8   0.000000   4.827820  20.387188   0.000000   # C_R
 354 1 5   0.000000   2.996221  21.115990   0.000000   # H_
 355 1 8   0.000000   6.508821  22.068187   0.000000   # C_R
 356 2 10   0.000000   5.780023  23.899788   0.000000   # O_3
 357 1 8   0.000000   6.204920  20.691087   0.000000   # C_R
 358 1 8   0.000000   7.243120  19.652886   0.000000   # C_R
 359 1 5   0.000000   4.558920  19.496888   0.000000   # H_
 360 1 8   0.000000   6.939219  18.275787   0.000000   # C_R
 361 1 5   0.000000   7.399122  22.337086   0.000000   # H_
 362 1 8   0.000000   8.620220  19.956785   0.000000   # C_R
 363 1 8   0.000000   7.912818  17.339886   0.000000   # C_R
 364 1 5   0.000000   6.048918  18.006887   0.000000   # H_
 365 1 8   0.000000   9.556119  18.983185   0.000000   # C_R
 366 1 5   0.000000   8.889121  20.847085   0.000000   # H_
 367 1 8   0.000000   9.238818  17.657185   0.000000   # C_R
 368 1 6   0.000000  10.295817  16.600184   0.000000   # C_2
 369 2 10   0.000000   7.668017  16.444186   0.000000   # O_3
 370 1 5   0.000000  10.451819  19.227984   0.000000   # H_
 371 1 9   0.000000   9.881616  15.381784   0.000000   # O_1
 372 1 9   0.000000  11.514218  17.014383   0.000000   # O_1
 373 2 7   0.000000   6.470102  15.665982  26.895067   # C_3
 374 2 7   0.000000   6.040127  25.276658  26.893943   # C_3
 375 2 7   0.000000   6.802996  14.175559  26.895994   # C_3
 376 2 5   0.000000   5.875120  15.897767  26.000361   # H_
 377 2 5   0.000000   5.873129  15.898300   0.892312   # H_
 378 2 5   0.000000   7.417558  13.936535  26.019732   # H_
 379 2 7   0.000000   5.522298  13.340348  26.893552   # C_3
 380 2 5   0.000000   7.414020  13.936823   0.878818   # H_
 381 2 5   0.000000   4.921936  13.594741  26.011184   # H_
 382 2 5   0.000000   4.919319  13.593393   0.878520   # H_
 383 2 7   0.000000   5.816795  11.842314  26.892701   # C_3
 384 2 7   0.000000   7.543890  25.576602  26.870203   # C_3
 385 2 5   0.000000   5.588197  25.762473   0.871362   # H_
 386 2 5   0.000000   5.614661  25.711130  25.980744   # H_
 387 2 7   0.000000   8.171746  25.724262   1.364659   # C_3
 388 2 5   0.000000   7.686190  26.535862  26.356222   # H_
 389 2 5   0.000000   8.083934  24.816603  26.294437   # H_
 390 2 5   0.000000   7.635588  26.499619   1.926157   # H_
 391 2 5   0.000000   9.198796  26.088659   1.236176   # H_
 392 2 7   0.000000   8.201776  24.431037   2.174362   # C_3
 393 2 5   0.000000   6.411669  11.579435  26.010537   # H_
 394 2 7   0.000000   4.530676  11.029839  26.889444   # C_3
 395 2 5   0.000000   6.408438  11.577656   0.880504   # H_
 396 2 5   0.000000   7.183958  24.073728   2.359833   # H_
 397 2 7   0.000000   8.894830  24.632688   3.512949   # C_3
 398 2 5   0.000000   8.732007  23.654294   1.612597   # H_
 399 2 5   0.000000   8.367058  25.376402   4.118521   # H_
 400 2 5   0.000000   9.926598  24.971057   3.374365   # H_
 401 2 5   0.000000   8.917477  23.692363   4.072361   # H_
 402 2 5   0.000000   3.928448  11.252156  26.002489   # H_
 403 2 5   0.000000   3.926835  11.247737   0.880393   # H_
 404 2 5   0.000000   4.756898   9.959213  26.886964   # H_
 405 1 9   0.000000  24.962178  23.329590   0.000000   # O_1
 406 1 6   0.000000  23.743777  23.743789   0.000000   # C_2
 407 1 9   0.000000  23.329576  24.962189   0.000000   # O_1
 408 1 8   0.000000  22.686778  22.686789   0.000000   # C_R
 409 1 8   0.000000  23.004079  21.360789  26.896000   # C_R
 410 1 8   0.000000  21.360778  23.004088   0.000000   # C_R
 411 1 8   0.000000  22.068180  20.387188  26.896000   # C_R
 412 1 5   0.000000  23.899779  21.115990  26.896000   # H_
 413 1 8   0.000000  20.387179  22.068187   0.000000   # C_R
 414 2 10   0.000000  21.115977  23.899788   0.000000   # O_3
 415 1 8   0.000000  20.691080  20.691087   0.000000   # C_R
 416 1 8   0.000000  19.652880  19.652886  26.896000   # C_R
 417 1 5   0.000000  22.337080  19.496888  26.896000   # H_
 418 1 8   0.000000  19.956781  18.275787  26.896000   # C_R
 419 1 5   0.000000  19.496878  22.337086   0.000000   # H_
 420 1 8   0.000000  18.275780  19.956785   0.000000   # C_R
 421 1 8   0.000000  18.983182  17.339886  26.896000   # C_R
 422 1 5   0.000000  20.847082  18.006887  26.896000   # H_
 423 1 8   0.000000  17.339881  18.983185   0.000000   # C_R
 424 1 5   0.000000  18.006879  20.847085   0.000000   # H_
 425 1 8   0.000000  17.657182  17.657185  26.896000   # C_R
 426 1 6   0.000000  16.600183  16.600184  26.896000   # C_2
 427 2 10   0.000000  19.227983  16.444186  26.896000   # O_3
 428 1 5   0.000000  16.444181  19.227984   0.000000   # H_
 429 1 9   0.000000  17.014384  15.381784  26.896000   # O_1
 430 1 9   0.000000  15.381782  17.014383   0.000000   # O_1
 431 2 7   0.000000  20.425898  15.665982   0.000933   # C_3
 432 2 7   0.000000  20.855873  25.276658   0.002057   # C_3
 433 2 7   0.000000  20.093004  14.175559   0.000006   # C_3
 434 2 5   0.000000  21.020880  15.897767   0.895639   # H_
 435 2 5   0.000000  21.022871  15.898300  26.003688   # H_
 436 2 5   0.000000  19.478442  13.936535   0.876268   # H_
 437 2 7   0.000000  21.373702  13.340348   0.002448   # C_3
 438 2 5   0.000000  19.481980  13.936823  26.017182   # H_
 439 2 5   0.000000  21.974064  13.594741   0.884816   # H_
 440 2 5   0.000000  21.976681  13.593393  26.017480   # H_
 441 2 7   0.000000  21.079205  11.842314   0.003299   # C_3
 442 2 7   0.000000  19.352110  25.576602   0.025797   # C_3
 443 2 5   0.000000  21.307803  25.762473  26.024638   # H_
 444 2 5   0.000000  21.281339  25.711130   0.915256   # H_
 445 2 7   0.000000  18.724254  25.724262  25.531341   # C_3
 446 2 5   0.000000  19.209810  26.535862   0.539778   # H_
 447 2 5   0.000000  18.812066  24.816603   0.601563   # H_
 448 2 5   0.000000  19.260412  26.499619  24.969843   # H_
 449 2 5   0.000000  17.697204  26.088659  25.659824   # H_
 450 2 7   0.000000  18.694224  24.431037  24.721638   # C_3
 451 2 5   0.000000  20.484331  11.579435   0.885463   # H_
 452 2 7   0.000000  22.365324  11.029839   0.006556   # C_3
 453 2 5   0.000000  20.487562  11.577656  26.015496   # H_
 454 2 5   0.000000  19.712042  24.073728  24.536167   # H_
 455 2 7   0.000000  18.001170  24.632688  23.383051   # C_3
 456 2 5   0.000000  18.163993  23.654294  25.283403   # H_
 457 2 5   0.000000  18.528942  25.376402  22.777479   # H_
 458 2 5   0.000000  16.969402  24.971057  23.521635   # H_
 459 2 5   0.000000  17.978523  23.692363  22.823639   # H_
 460 2 5   0.000000  22.967552  11.252156   0.893511   # H_
 461 2 5   0.000000  22.969165  11.247737  26.015607   # H_
 462 2 5   0.000000  22.139102   9.959213   0.009036   # H_
 463 1 9   0.000000  24.962178   3.566410   0.000000   # O_1