 (written by mofun)

1256 atoms
672 bonds
1392 angles
2256 dihedrals
0 impropers

10 atom types
4 bond types
8 angle types
12 dihedral types
   0.000000  26.896000 xlo xhi
   0.000000  26.896000 ylo yhi
   0.000000  26.896000 zlo zhi

Masses

 1 91.2240   # Zr3+4
 2 15.9994   # O_3
 3 12.0107   # C_3
 4 1.0079   # H_
 5 1.0079   # H_
 6 12.0107   # C_2
 7 12.0107   # C_3
 8 12.0107   # C_R
 9 14.0067   # N_R
 10 15.9994   # O_1

Pair Coeffs

 1   0.069000   2.783168 # Zr3+4
 2   0.060000   3.118146 # O_3
 3   0.105000   3.430851 # C_3
 4   0.044000   2.571134 # H_
 5 0.044000 2.571134   # H_
 6 0.105000 3.430851   # C_2
 7 0.105000 3.430851   # C_3
 8 0.105000 3.430851   # C_R
 9 0.069000 3.260689   # N_R
 10 0.060000 3.118146   # O_1

Bond Coeffs

 1 561.491352 1.422196   # C_R N_R
 2 529.724731 1.450075   # C_3 N_R
 3 331.069389 1.109401   # C_3 H_
 4 349.795899 1.514000   # C_3 C_3

Angle Coeffs

 1 cosine/periodic  282.674883  -1  3   # C_R C_R N_R
 2 cosine/periodic  197.156456  -1  3   # C_3 N_R C_R
 3 cosine/periodic  191.548677  -1  3   # C_3 N_R C_3
 4 fourier  170.007371  0.343737  0.374972  0.281246   # H_ C_3 N_R
 5 fourier  303.594562  0.343737  0.374972  0.281246   # C_3 C_3 N_R
 6 fourier  117.318683  0.343737  0.374972  0.281246   # C_3 C_3 H_
 7 fourier  75.498766  0.343737  0.374972  0.281246   # H_ C_3 H_
 8 fourier  214.211821  0.343737  0.374972  0.281246   # C_3 C_3 C_3

Dihedral Coeffs

 1 harmonic 3.368555 -1 2   # C_R C_R C_R N_R M=4
 2 harmonic 3.368555 -1 2   # H_ C_R C_R N_R M=4
 3 harmonic 1.250000 -1 2   # C_3 N_R C_R C_R M=4
 4 harmonic 0.083333 -1 6   # C_3 C_3 N_R C_R M=6
 5 harmonic 0.083333 -1 6   # C_R N_R C_3 H_ M=6
 6 harmonic 0.083333 -1 6   # C_3 C_3 N_R C_3 M=6
 7 harmonic 0.083333 -1 6   # C_3 N_R C_3 H_ M=6
 8 harmonic 0.117722 1 3   # C_3 C_3 C_3 N_R M=9
 9 harmonic 0.117722 1 3   # H_ C_3 C_3 N_R M=9
 10 harmonic 0.117722 1 3   # C_3 C_3 C_3 H_ M=9
 11 harmonic 0.117722 1 3   # H_ C_3 C_3 H_ M=9
 12 harmonic 0.117722 1 3   # C_3 C_3 C_3 C_3 M=9

Atoms

 1 1 1   0.000000   2.475508   0.000000   0.000000   # Zr3+4
 2 1 1   0.000000  24.420492   0.000000   0.000000   # Zr3+4
 3 1 1   0.000000   0.000000   2.475508   0.000000   # Zr3+4
 4 1 1   0.000000   0.000000  24.420492   0.000000   # Zr3+4
 5 1 1   0.000000   0.000000   0.000000   2.475508   # Zr3+4
 6 1 1   0.000000   0.000000   0.000000  24.420492   # Zr3+4
 7 1 1   0.000000   2.475508  13.448000  13.448000   # Zr3+4
 8 1 1   0.000000  24.420492  13.448000  13.448000   # Zr3+4
 9 1 1   0.000000   0.000000  15.923508  13.448000   # Zr3+4
 10 1 1   0.000000   0.000000  10.972492  13.448000   # Zr3+4
 11 1 1   0.000000   0.000000  13.448000  15.923508   # Zr3+4
 12 1 1   0.000000   0.000000  13.448000  10.972492   # Zr3+4
 13 1 1   0.000000  15.923508   0.000000  13.448000   # Zr3+4
 14 1 1   0.000000  10.972492   0.000000  13.448000   # Zr3+4
 15 1 1   0.000000  13.448000   2.475508  13.448000   # Zr3+4
 16 1 1   0.000000  13.448000  24.420492  13.448000   # Zr3+4
 17 1 1   0.000000  13.448000   0.000000  15.923508   # Zr3+4
 18 1 1   0.000000  13.448000   0.000000  10.972492   # Zr3+4
 19 1 1   0.000000  15.923508  13.448000   0.000000   # Zr3+4
 20 1 1   0.000000  10.972492  13.448000   0.000000   # Zr3+4
 21 1 1   0.000000  13.448000  15.923508   0.000000   # Zr3+4
 22 1 1   0.000000  13.448000  10.972492   0.000000   # Zr3+4
 23 1 1   0.000000  13.448000  13.448000   2.475508   # Zr3+4
 24 1 1   0.000000  13.448000  13.448000  24.420492   # Zr3+4
 25 1 2   0.000000   1.221078   1.221078   1.221078   # O_3
 26 1 2   0.000000  25.674922  25.674922   1.221078   # O_3
 27 1 2   0.000000  25.674922   1.221078  25.674922   # O_3
 28 1 2   0.000000   1.221078  25.674922  25.674922   # O_3
 29 1 2   0.000000   1.221078   1.221078  25.674922   # O_3
 30 1 2   0.000000  25.674922  25.674922  25.674922   # O_3
 31 1 2   0.000000   1.221078  25.674922   1.221078   # O_3
 32 1 2   0.000000  25.674922   1.221078   1.221078   # O_3
 33 1 2   0.000000   1.221078  14.669078  14.669078   # O_3
 34 1 2   0.000000  25.674922  12.226922  14.669078   # O_3
 35 1 2   0.000000  25.674922  14.669078  12.226922   # O_3
 36 1 2   0.000000   1.221078  12.226922  12.226922   # O_3
 37 1 2   0.000000   1.221078  14.669078  12.226922   # O_3
 38 1 2   0.000000  25.674922  12.226922  12.226922   # O_3
 39 1 2   0.000000   1.221078  12.226922  14.669078   # O_3
 40 1 2   0.000000  25.674922  14.669078  14.669078   # O_3
 41 1 2   0.000000  14.669078   1.221078  14.669078   # O_3
 42 1 2   0.000000  12.226922  25.674922  14.669078   # O_3
 43 1 2   0.000000  12.226922   1.221078  12.226922   # O_3
 44 1 2   0.000000  14.669078  25.674922  12.226922   # O_3
 45 1 2   0.000000  14.669078   1.221078  12.226922   # O_3
 46 1 2   0.000000  12.226922  25.674922  12.226922   # O_3
 47 1 2   0.000000  14.669078  25.674922  14.669078   # O_3
 48 1 2   0.000000  12.226922   1.221078  14.669078   # O_3
 49 1 2   0.000000  14.669078  14.669078   1.221078   # O_3
 50 1 2   0.000000  12.226922  12.226922   1.221078   # O_3
 51 1 2   0.000000  12.226922  14.669078  25.674922   # O_3
 52 1 2   0.000000  14.669078  12.226922  25.674922   # O_3
 53 1 2   0.000000  14.669078  14.669078  25.674922   # O_3
 54 1 2   0.000000  12.226922  12.226922  25.674922   # O_3
 55 1 2   0.000000  14.669078  12.226922   1.221078   # O_3
 56 1 2   0.000000  12.226922  14.669078   1.221078   # O_3
 57 1 10   0.000000   3.566410   0.000000   1.933822   # O_1
 58 1 6   0.000000   3.152211   0.000000   3.152223   # C_2
 59 1 10   0.000000   1.933811  26.896000   3.566424   # O_1
 60 1 8   0.000000   4.209211   0.000000   4.209222   # C_R
 61 1 8   0.000000   5.535211   0.000000   3.891921   # C_R
 62 1 8   0.000000   3.891912   0.000000   5.535222   # C_R
 63 1 8   0.000000   6.508812   0.000000   4.827820   # C_R
 64 1 5   0.000000   5.780010  26.896000   2.996221   # H_
 65 1 8   0.000000   4.827813  26.896000   6.508821   # C_R
 66 1 5   0.000000   2.996212  26.896000   5.780023   # H_
 67 1 8   0.000000   6.204913   0.000000   6.204920   # C_R
 68 1 8   0.000000   7.243114  26.896000   7.243120   # C_R
 69 1 5   0.000000   7.399112   0.000000   4.558920   # H_
 70 1 8   0.000000   8.620213   0.000000   6.939219   # C_R
 71 2 9   0.000000   4.303638   0.197536   7.810720   # N_R
 72 1 8   0.000000   6.939215   0.000000   8.620220   # C_R
 73 1 8   0.000000   9.556114   0.000000   7.912818   # C_R
 74 2 9   0.000000   9.152304  26.666424   5.641113   # N_R
 75 1 8   0.000000   7.912815   0.000000   9.556119   # C_R
 76 1 5   0.000000   6.048915   0.000000   8.889121   # H_
 77 1 8   0.000000   9.238815  26.896000   9.238818   # C_R
 78 1 6   0.000000  10.295816  26.896000  10.295817   # C_2
 79 1 5   0.000000  10.451814   0.000000   7.668017   # H_
 80 1 5   0.000000   7.668016   0.000000  10.451819   # H_
 81 1 10   0.000000  11.514216   0.000000   9.881616   # O_1
 82 1 10   0.000000   9.881617   0.000000  11.514218   # O_1
 83 2 7   0.000000   9.613053   0.918349   4.857837   # C_3
 84 2 7   0.000000  10.174494  25.620392   5.465950   # C_3
 85 2 7   0.000000   3.361250   1.304293   8.033161   # C_3
 86 2 7   0.000000   3.781398  25.928966   8.523060   # C_3
 87 2 5   0.000000   9.803248  24.623083   5.716438   # H_
 88 2 5   0.000000  11.083351  25.814438   6.050488   # H_
 89 2 7   0.000000  10.554925  25.747214   3.988585   # C_3
 90 2 5   0.000000   8.839233   1.670786   4.683249   # H_
 91 2 7   0.000000  10.019512   0.218420   3.552312   # C_3
 92 2 5   0.000000  10.481885   1.401776   5.321575   # H_
 93 2 5   0.000000  10.739168   0.791351   2.964520   # H_
 94 2 5   0.000000   9.134188   0.056600   2.920697   # H_
 95 2 5   0.000000  10.100574  24.942032   3.400981   # H_
 96 2 5   0.000000  11.640499  25.678846   3.855952   # H_
 97 2 5   0.000000   4.535164  25.150674   8.680517   # H_
 98 2 5   0.000000   2.914251  25.494515   8.013522   # H_
 99 2 7   0.000000   3.363639  26.572875   9.847921   # C_3
 100 2 5   0.000000   4.240675  26.701889  10.496287   # H_
 101 2 5   0.000000   2.630180  25.980294  10.400047   # H_
 102 2 7   0.000000   2.840076   1.058921   9.453864   # C_3
 103 2 5   0.000000   2.499912   1.282067   7.354636   # H_
 104 2 5   0.000000   3.849506   2.279092   7.938894   # H_
 105 2 5   0.000000   3.197999   1.830326  10.144487   # H_
 106 2 5   0.000000   1.744956   1.085792   9.472103   # H_
 107 1 10   0.000000  23.329590   0.000000   1.933822   # O_1
 108 1 6   0.000000  23.743789   0.000000   3.152223   # C_2
 109 1 10   0.000000  24.962189   0.000000   3.566424   # O_1
 110 1 8   0.000000  22.686789   0.000000   4.209222   # C_R
 111 1 8   0.000000  21.360789  26.896000   3.891921   # C_R
 112 1 8   0.000000  23.004088   0.000000   5.535222   # C_R
 113 1 8   0.000000  20.387188  26.896000   4.827820   # C_R
 114 1 5   0.000000  21.115990  26.896000   2.996221   # H_
 115 1 8   0.000000  22.068187   0.000000   6.508821   # C_R
 116 1 5   0.000000  23.899788   0.000000   5.780023   # H_
 117 1 8   0.000000  20.691087   0.000000   6.204920   # C_R
 118 1 8   0.000000  19.652886  26.896000   7.243120   # C_R
 119 1 5   0.000000  19.496888  26.896000   4.558920   # H_
 120 1 8   0.000000  18.275787  26.896000   6.939219   # C_R
 121 2 9   0.000000  22.592362  26.698464   7.810720   # N_R
 122 1 8   0.000000  19.956785   0.000000   8.620220   # C_R
 123 1 8   0.000000  17.339886  26.896000   7.912818   # C_R
 124 2 9   0.000000  17.743696   0.229576   5.641113   # N_R
 125 1 8   0.000000  18.983185   0.000000   9.556119   # C_R
 126 1 5   0.000000  20.847085   0.000000   8.889121   # H_
 127 1 8   0.000000  17.657185  26.896000   9.238818   # C_R
 128 1 6   0.000000  16.600184  26.896000  10.295817   # C_2
 129 1 5   0.000000  16.444186  26.896000   7.668017   # H_
 130 1 5   0.000000  19.227984   0.000000  10.451819   # H_
 131 1 10   0.000000  15.381784  26.896000   9.881616   # O_1
 132 1 10   0.000000  17.014383  26.896000  11.514218   # O_1
 133 2 7   0.000000  17.282947  25.977651   4.857837   # C_3
 134 2 7   0.000000  16.721506   1.275608   5.465950   # C_3
 135 2 7   0.000000  23.534750  25.591707   8.033161   # C_3
 136 2 7   0.000000  23.114602   0.967034   8.523060   # C_3
 137 2 5   0.000000  17.092752   2.272917   5.716438   # H_
 138 2 5   0.000000  15.812649   1.081562   6.050488   # H_
 139 2 7   0.000000  16.341075   1.148786   3.988585   # C_3
 140 2 5   0.000000  18.056767  25.225214   4.683249   # H_
 141 2 7   0.000000  16.876488  26.677580   3.552312   # C_3
 142 2 5   0.000000  16.414115  25.494224   5.321575   # H_
 143 2 5   0.000000  16.156832  26.104649   2.964520   # H_
 144 2 5   0.000000  17.761812  26.839400   2.920697   # H_
 145 2 5   0.000000  16.795426   1.953968   3.400981   # H_
 146 2 5   0.000000  15.255501   1.217154   3.855952   # H_
 147 2 5   0.000000  22.360836   1.745326   8.680517   # H_
 148 2 5   0.000000  23.981749   1.401485   8.013522   # H_
 149 2 7   0.000000  23.532361   0.323125   9.847921   # C_3
 150 2 5   0.000000  22.655325   0.194111  10.496287   # H_
 151 2 5   0.000000  24.265820   0.915706  10.400047   # H_
 152 2 7   0.000000  24.055924  25.837079   9.453864   # C_3
 153 2 5   0.000000  24.396088  25.613933   7.354636   # H_
 154 2 5   0.000000  23.046494  24.616908   7.938894   # H_
 155 2 5   0.000000  23.698001  25.065674  10.144487   # H_
 156 2 5   0.000000  25.151044  25.810208   9.472103   # H_
 157 1 10   0.000000  23.329590   0.000000  24.962178   # O_1
 158 1 6   0.000000  23.743789   0.000000  23.743777   # C_2
 159 1 10   0.000000  24.962189   0.000000  23.329576   # O_1
 160 1 8   0.000000  22.686789   0.000000  22.686778   # C_R
 161 1 8   0.000000  21.360789  26.896000  23.004079   # C_R
 162 1 8   0.000000  23.004088   0.000000  21.360778   # C_R
 163 1 8   0.000000  20.387188  26.896000  22.068180   # C_R
 164 1 5   0.000000  21.115990  26.896000  23.899779   # H_
 165 1 8   0.000000  22.068187   0.000000  20.387179   # C_R
 166 1 5   0.000000  23.899788   0.000000  21.115977   # H_
 167 1 8   0.000000  20.691087   0.000000  20.691080   # C_R
 168 1 8   0.000000  19.652886  26.896000  19.652880   # C_R
 169 1 5   0.000000  19.496888  26.896000  22.337080   # H_
 170 1 8   0.000000  18.275787  26.896000  19.956781   # C_R
 171 2 9   0.000000  22.592362   0.197536  19.085280   # N_R
 172 1 8   0.000000  19.956785   0.000000  18.275780   # C_R
 173 1 8   0.000000  17.339886  26.896000  18.983182   # C_R
 174 2 9   0.000000  17.743696  26.666424  21.254887   # N_R
 175 1 8   0.000000  18.983185   0.000000  17.339881   # C_R
 176 1 5   0.000000  20.847085   0.000000  18.006879   # H_
 177 1 8   0.000000  17.657185  26.896000  17.657182   # C_R
 178 1 6   0.000000  16.600184  26.896000  16.600183   # C_2
 179 1 5   0.000000  16.444186  26.896000  19.227983   # H_
 180 1 5   0.000000  19.227984   0.000000  16.444181   # H_
 181 1 10   0.000000  15.381784  26.896000  17.014384   # O_1
 182 1 10   0.000000  17.014383  26.896000  15.381782   # O_1
 183 2 7   0.000000  17.282947   0.918349  22.038163   # C_3
 184 2 7   0.000000  16.721506  25.620392  21.430050   # C_3
 185 2 7   0.000000  23.534750   1.304293  18.862839   # C_3
 186 2 7   0.000000  23.114602  25.928966  18.372940   # C_3
 187 2 5   0.000000  17.092752  24.623083  21.179562   # H_
 188 2 5   0.000000  15.812649  25.814438  20.845512   # H_
 189 2 7   0.000000  16.341075  25.747214  22.907415   # C_3
 190 2 5   0.000000  18.056767   1.670786  22.212751   # H_
 191 2 7   0.000000  16.876488   0.218420  23.343688   # C_3
 192 2 5   0.000000  16.414115   1.401776  21.574425   # H_
 193 2 5   0.000000  16.156832   0.791351  23.931480   # H_
 194 2 5   0.000000  17.761812   0.056600  23.975303   # H_
 195 2 5   0.000000  16.795426  24.942032  23.495019   # H_
 196 2 5   0.000000  15.255501  25.678846  23.040048   # H_
 197 2 5   0.000000  22.360836  25.150674  18.215483   # H_
 198 2 5   0.000000  23.981749  25.494515  18.882478   # H_
 199 2 7   0.000000  23.532361  26.572875  17.048079   # C_3
 200 2 5   0.000000  22.655325  26.701889  16.399713   # H_
 201 2 5   0.000000  24.265820  25.980294  16.495953   # H_
 202 2 7   0.000000  24.055924   1.058921  17.442136   # C_3
 203 2 5   0.000000  24.396088   1.282067  19.541364   # H_
 204 2 5   0.000000  23.046494   2.279092  18.957106   # H_
 205 2 5   0.000000  23.698001   1.830326  16.751513   # H_
 206 2 5   0.000000  25.151044   1.085792  17.423897   # H_
 207 1 10   0.000000   3.566410   0.000000  24.962178   # O_1
 208 1 6   0.000000   3.152211   0.000000  23.743777   # C_2
 209 1 10   0.000000   1.933811   0.000000  23.329576   # O_1
 210 1 8   0.000000   4.209211   0.000000  22.686778   # C_R
 211 1 8   0.000000   5.535211   0.000000  23.004079   # C_R
 212 1 8   0.000000   3.891912   0.000000  21.360778   # C_R
 213 1 8   0.000000   6.508812   0.000000  22.068180   # C_R
 214 1 5   0.000000   5.780010   0.000000  23.899779   # H_
 215 1 8   0.000000   4.827813   0.000000  20.387179   # C_R
 216 1 5   0.000000   2.996212   0.000000  21.115977   # H_
 217 1 8   0.000000   6.204913   0.000000  20.691080   # C_R
 218 1 8   0.000000   7.243114   0.000000  19.652880   # C_R
 219 1 5   0.000000   7.399112   0.000000  22.337080   # H_
 220 1 8   0.000000   8.620213   0.000000  19.956781   # C_R
 221 2 9   0.000000   4.303638  26.698464  19.085280   # N_R
 222 1 8   0.000000   6.939215   0.000000  18.275780   # C_R
 223 1 8   0.000000   9.556114   0.000000  18.983182   # C_R
 224 2 9   0.000000   9.152304   0.229576  21.254887   # N_R
 225 1 8   0.000000   7.912815   0.000000  17.339881   # C_R
 226 1 5   0.000000   6.048915   0.000000  18.006879   # H_
 227 1 8   0.000000   9.238815   0.000000  17.657182   # C_R
 228 1 6   0.000000  10.295816   0.000000  16.600183   # C_2
 229 1 5   0.000000  10.451814   0.000000  19.227983   # H_
 230 1 5   0.000000   7.668016   0.000000  16.444181   # H_
 231 1 10   0.000000  11.514216   0.000000  17.014384   # O_1
 232 1 10   0.000000   9.881617   0.000000  15.381782   # O_1
 233 2 7   0.000000   9.613053  25.977651  22.038163   # C_3
 234 2 7   0.000000  10.174494   1.275608  21.430050   # C_3
 235 2 7   0.000000   3.361250  25.591707  18.862839   # C_3
 236 2 7   0.000000   3.781398   0.967034  18.372940   # C_3
 237 2 5   0.000000   9.803248   2.272917  21.179562   # H_
 238 2 5   0.000000  11.083351   1.081562  20.845512   # H_
 239 2 7   0.000000  10.554925   1.148786  22.907415   # C_3
 240 2 5   0.000000   8.839233  25.225214  22.212751   # H_
 241 2 7   0.000000  10.019512  26.677580  23.343688   # C_3
 242 2 5   0.000000  10.481885  25.494224  21.574425   # H_
 243 2 5   0.000000  10.739168  26.104649  23.931480   # H_
 244 2 5   0.000000   9.134188  26.839400  23.975303   # H_
 245 2 5   0.000000  10.100574   1.953968  23.495019   # H_
 246 2 5   0.000000  11.640499   1.217154  23.040048   # H_
 247 2 5   0.000000   4.535164   1.745326  18.215483   # H_
 248 2 5   0.000000   2.914251   1.401485  18.882478   # H_
 249 2 7   0.000000   3.363639   0.323125  17.048079   # C_3
 250 2 5   0.000000   4.240675   0.194111  16.399713   # H_
 251 2 5   0.000000   2.630180   0.915706  16.495953   # H_
 252 2 7   0.000000   2.840076  25.837079  17.442136   # C_3
 253 2 5   0.000000   2.499912  25.613933  19.541364   # H_
 254 2 5   0.000000   3.849506  24.616908  18.957106   # H_
 255 2 5   0.000000   3.197999  25.065674  16.751513   # H_
 256 2 5   0.000000   1.744956  25.810208  17.423897   # H_
 257 1 10   0.000000   1.933822   3.566410   0.000000   # O_1
 258 1 6   0.000000   3.152223   3.152211   0.000000   # C_2
 259 1 10   0.000000   3.566424   1.933811   0.000000   # O_1
 260 1 8   0.000000   4.209222   4.209211   0.000000   # C_R
 261 1 8   0.000000   3.891921   5.535211  26.896000   # C_R
 262 1 8   0.000000   5.535222   3.891912   0.000000   # C_R
 263 1 8   0.000000   4.827820   6.508812  26.896000   # C_R
 264 1 5   0.000000   2.996221   5.780010  26.896000   # H_
 265 1 8   0.000000   6.508821   4.827813   0.000000   # C_R
 266 1 5   0.000000   5.780023   2.996212   0.000000   # H_
 267 1 8   0.000000   6.204920   6.204913   0.000000   # C_R
 268 1 8   0.000000   7.243120   7.243114  26.896000   # C_R
 269 1 5   0.000000   4.558920   7.399112  26.896000   # H_
 270 1 8   0.000000   6.939219   8.620213  26.896000   # C_R
 271 2 9   0.000000   7.810720   4.303638   0.197536   # N_R
 272 1 8   0.000000   8.620220   6.939215   0.000000   # C_R
 273 1 8   0.000000   7.912818   9.556114  26.896000   # C_R
 274 2 9   0.000000   5.641113   9.152304  26.666424   # N_R
 275 1 8   0.000000   9.556119   7.912815   0.000000   # C_R
 276 1 5   0.000000   8.889121   6.048915   0.000000   # H_
 277 1 8   0.000000   9.238818   9.238815  26.896000   # C_R
 278 1 6   0.000000  10.295817  10.295816  26.896000   # C_2
 279 1 5   0.000000   7.668017  10.451814  26.896000   # H_
 280 1 5   0.000000  10.451819   7.668016   0.000000   # H_
 281 1 10   0.000000   9.881616  11.514216  26.896000   # O_1
 282 1 10   0.000000  11.514218   9.881617  26.896000   # O_1
 283 2 7   0.000000   4.857837   9.613053   0.918349   # C_3
 284 2 7   0.000000   5.465950  10.174494  25.620392   # C_3
 285 2 7   0.000000   8.033161   3.361250   1.304293   # C_3
 286 2 7   0.000000   8.523060   3.781398  25.928966   # C_3
 287 2 5   0.000000   5.716438   9.803248  24.623083   # H_
 288 2 5   0.000000   6.050488  11.083351  25.814438   # H_
 289 2 7   0.000000   3.988585  10.554925  25.747214   # C_3
 290 2 5   0.000000   4.683249   8.839233   1.670786   # H_
 291 2 7   0.000000   3.552312  10.019512   0.218420   # C_3
 292 2 5   0.000000   5.321575  10.481885   1.401776   # H_
 293 2 5   0.000000   2.964520  10.739168   0.791351   # H_
 294 2 5   0.000000   2.920697   9.134188   0.056600   # H_
 295 2 5   0.000000   3.400981  10.100574  24.942032   # H_
 296 2 5   0.000000   3.855952  11.640499  25.678846   # H_
 297 2 5   0.000000   8.680517   4.535164  25.150674   # H_
 298 2 5   0.000000   8.013522   2.914251  25.494515   # H_
 299 2 7   0.000000   9.847921   3.363639  26.572875   # C_3
 300 2 5   0.000000  10.496287   4.240675  26.701889   # H_
 301 2 5   0.000000  10.400047   2.630180  25.980294   # H_
 302 2 7   0.000000   9.453864   2.840076   1.058921   # C_3
 303 2 5   0.000000   7.354636   2.499912   1.282067   # H_
 304 2 5   0.000000   7.938894   3.849506   2.279092   # H_
 305 2 5   0.000000  10.144487   3.197999   1.830326   # H_
 306 2 5   0.000000   9.472103   1.744956   1.085792   # H_
 307 1 10   0.000000   1.933822  23.329590   0.000000   # O_1
 308 1 6   0.000000   3.152223  23.743789   0.000000   # C_2
 309 1 10   0.000000   3.566424  24.962189   0.000000   # O_1
 310 1 8   0.000000   4.209222  22.686789   0.000000   # C_R
 311 1 8   0.000000   3.891921  21.360789   0.000000   # C_R
 312 1 8   0.000000   5.535222  23.004088   0.000000   # C_R
 313 1 8   0.000000   4.827820  20.387188   0.000000   # C_R
 314 1 5   0.000000   2.996221  21.115990   0.000000   # H_
 315 1 8   0.000000   6.508821  22.068187   0.000000   # C_R
 316 1 5   0.000000   5.780023  23.899788   0.000000   # H_
 317 1 8   0.000000   6.204920  20.691087   0.000000   # C_R
 318 1 8   0.000000   7.243120  19.652886   0.000000   # C_R
 319 1 5   0.000000   4.558920  19.496888   0.000000   # H_
 320 1 8   0.000000   6.939219  18.275787   0.000000   # C_R
 321 2 9   0.000000   7.810720  22.592362  26.698464   # N_R
 322 1 8   0.000000   8.620220  19.956785   0.000000   # C_R
 323 1 8   0.000000   7.912818  17.339886   0.000000   # C_R
 324 2 9   0.000000   5.641113  17.743696   0.229576   # N_R
 325 1 8   0.000000   9.556119  18.983185   0.000000   # C_R
 326 1 5   0.000000   8.889121  20.847085   0.000000   # H_
 327 1 8   0.000000   9.238818  17.657185   0.000000   # C_R
 328 1 6   0.000000  10.295817  16.600184   0.000000   # C_2
 329 1 5   0.000000   7.668017  16.444186   0.000000   # H_
 330 1 5   0.000000  10.451819  19.227984   0.000000   # H_
 331 1 10   0.000000   9.881616  15.381784   0.000000   # O_1
 332 1 10   0.000000  11.514218  17.014383   0.000000   # O_1
 333 2 7   0.000000   4.857837  17.282947  25.977651   # C_3
 334 2 7   0.000000   5.465950  16.721506   1.275608   # C_3
 335 2 7   0.000000   8.033161  23.534750  25.591707   # C_3
 336 2 7   0.000000   8.523060  23.114602   0.967034   # C_3
 337 2 5   0.000000   5.716438  17.092752   2.272917   # H_
 338 2 5   0.000000   6.050488  15.812649   1.081562   # H_
 339 2 7   0.000000   3.988585  16.341075   1.148786   # C_3
 340 2 5   0.000000   4.683249  18.056767  25.225214   # H_
 341 2 7   0.000000   3.552312  16.876488  26.677580   # C_3
 342 2 5   0.000000   5.321575  16.414115  25.494224   # H_
 343 2 5   0.000000   2.964520  16.156832  26.104649   # H_
 344 2 5   0.000000   2.920697  17.761812  26.839400   # H_
 345 2 5   0.000000   3.400981  16.795426   1.953968   # H_
 346 2 5   0.000000   3.855952  15.255501   1.217154   # H_
 347 2 5   0.000000   8.680517  22.360836   1.745326   # H_
 348 2 5   0.000000   8.013522  23.981749   1.401485   # H_
 349 2 7   0.000000   9.847921  23.532361   0.323125   # C_3
 350 2 5   0.000000  10.496287  22.655325   0.194111   # H_
 351 2 5   0.000000  10.400047  24.265820   0.915706   # H_
 352 2 7   0.000000   9.453864  24.055924  25.837079   # C_3
 353 2 5   0.000000   7.354636  24.396088  25.613933   # H_
 354 2 5   0.000000   7.938894  23.046494  24.616908   # H_
 355 2 5   0.000000  10.144487  23.698001  25.065674   # H_
 356 2 5   0.000000   9.472103  25.151044  25.810208   # H_
 357 1 10   0.000000  24.962178  23.329590   0.000000   # O_1
 358 1 6   0.000000  23.743777  23.743789   0.000000   # C_2
 359 1 10   0.000000  23.329576  24.962189   0.000000   # O_1
 360 1 8   0.000000  22.686778  22.686789   0.000000   # C_R
 361 1 8   0.000000  23.004079  21.360789  26.896000   # C_R
 362 1 8   0.000000  21.360778  23.004088   0.000000   # C_R
 363 1 8   0.000000  22.068180  20.387188  26.896000   # C_R
 364 1 5   0.000000  23.899779  21.115990  26.896000   # H_
 365 1 8   0.000000  20.387179  22.068187   0.000000   # C_R
 366 1 5   0.000000  21.115977  23.899788   0.000000   # H_
 367 1 8   0.000000  20.691080  20.691087   0.000000   # C_R
 368 1 8   0.000000  19.652880  19.652886  26.896000   # C_R
 369 1 5   0.000000  22.337080  19.496888  26.896000   # H_
 370 1 8   0.000000  19.956781  18.275787  26.896000   # C_R
 371 2 9   0.000000  19.085280  22.592362   0.197536   # N_R
 372 1 8   0.000000  18.275780  19.956785   0.000000   # C_R
 373 1 8   0.000000  18.983182  17.339886  26.896000   # C_R
 374 2 9   0.000000  21.254887  17.743696  26.666424   # N_R
 375 1 8   0.000000  17.339881  18.983185   0.000000   # C_R
 376 1 5   0.000000  18.006879  20.847085   0.000000   # H_
 377 1 8   0.000000  17.657182  17.657185  26.896000   # C_R
 378 1 6   0.000000  16.600183  16.600184  26.896000   # C_2
 379 1 5   0.000000  19.227983  16.444186  26.896000   # H_
 380 1 5   0.000000  16.444181  19.227984   0.000000   # H_
 381 1 10   0.000000  17.014384  15.381784  26.896000   # O_1
 382 1 10   0.000000  15.381782  17.014383   0.000000   # O_1
 383 2 7   0.000000  22.038163  17.282947   0.918349   # C_3
 384 2 7   0.000000  21.430050  16.721506  25.620392   # C_3
 385 2 7   0.000000  18.862839  23.534750   1.304293   # C_3
 386 2 7   0.000000  18.372940  23.114602  25.928966   # C_3
 387 2 5   0.000000  21.179562  17.092752  24.623083   # H_
 388 2 5   0.000000  20.845512  15.812649  25.814438   # H_
 389 2 7   0.000000  22.907415  16.341075  25.747214   # C_3
 390 2 5   0.000000  22.212751  18.056767   1.670786   # H_
 391 2 7   0.000000  23.343688  16.876488   0.218420   # C_3
 392 2 5   0.000000  21.574425  16.414115   1.401776   # H_
 393 2 5   0.000000  23.931480  16.156832   0.791351   # H_
 394 2 5   0.000000  23.975303  17.761812   0.056600   # H_
 395 2 5   0.000000  23.495019  16.795426  24.942032   # H_
 396 2 5   0.000000  23.040048  15.255501  25.678846   # H_
 397 2 5   0.000000  18.215483  22.360836  25.150674   # H_
 398 2 5   0.000000  18.882478  23.981749  25.494515   # H_
 399 2 7   0.000000  17.048079  23.532361  26.572875   # C_3
 400 2 5   0.000000  16.399713  22.655325  26.701889   # H_
 401 2 5   0.000000  16.495953  24.265820  25.980294   # H_
 402 2 7   0.000000  17.442136  24.055924   1.058921   # C_3
 403 2 5   0.000000  19.541364  24.396088   1.282067   # H_
 404 2 5   0.000000  18.957106  23.046494   2.279092   # H_
 405 2 5   0.000000  16.751513  23.698001   1.830326   # H_
 406 2 5   0.000000  17.423897  25.151044   1.085792   # H_
 407 1 10   0.000000  24.962178   3.566410   0.000000   # O_1
 408 1 6   0.000000  23.743777   3.152211   0.000000   # C_2
 409 1 10   0.000000  23.329576   1.933811   0.000000   # O_1
 410 1 8   0.000000  22.686778   4.209211   0.000000   # C_R
 411 1 8   0.000000  23.004079   5.535211   0.000000   # C_R
 412 1 8   0.000000  21.360778   3.891912   0.000000   # C_R
 413 1 8   0.000000  22.068180   6.508812   0.000000   # C_R
 414 1 5   0.000000  23.899779   5.780010   0.000000   # H_
 415 1 8   0.000000  20.387179   4.827813   0.000000   # C_R
 416 1 5   0.000000  21.115977   2.996212   0.000000   # H_
 417 1 8   0.000000  20.691080   6.204913   0.000000   # C_R
 418 1 8   0.000000  19.652880   7.243114   0.000000   # C_R
 419 1 5   0.000000  22.337080   7.399112   0.000000   # H_
 420 1 8   0.000000  19.956781   8.620213   0.000000   # C_R
 421 2 9   0.000000  19.085280   4.303638  26.698464   # N_R
 422 1 8   0.000000  18.275780   6.939215   0.000000   # C_R
 423 1 8   0.000000  18.983182   9.556114   0.000000   # C_R
 424 2 9   0.000000  21.254887   9.152304   0.229576   # N_R
 425 1 8   0.000000  17.339881   7.912815   0.000000   # C_R
 426 1 5   0.000000  18.006879   6.048915   0.000000   # H_
 427 1 8   0.000000  17.657182   9.238815   0.000000   # C_R
 428 1 6   0.000000  16.600183  10.295816   0.000000   # C_2
 429 1 5   0.000000  19.227983  10.451814   0.000000   # H_
 430 1 5   0.000000  16.444181   7.668016   0.000000   # H_
 431 1 10   0.000000  17.014384  11.514216   0.000000   # O_1
 432 1 10   0.000000  15.381782   9.881617   0.000000   # O_1
 433 2 7   0.000000  22.038163   9.613053  25.977651   # C_3
 434 2 7   0.000000  21.430050  10.174494   1.275608   # C_3
 435 2 7   0.000000  18.862839   3.361250  25.591707   # C_3
 436 2 7   0.000000  18.372940   3.781398   0.967034   # C_3
 437 2 5   0.000000  21.179562   9.803248   2.272917   # H_
 438 2 5   0.000000  20.845512  11.083351   1.081562   # H_
 439 2 7   0.000000  22.907415  10.554925   1.148786   # C_3
 440 2 5   0.000000  22.212751   8.839233  25.225214   # H_
 441 2 7   0.000000  23.343688  10.019512  26.677580   # C_3
 442 2 5   0.000000  21.574425  10.481885  25.494224   # H_
 443 2 5   0.000000  23.931480  10.739168  26.104649   # H_
 444 2 5   0.000000  23.975303   9.134188  26.839400   # H_
 445 2 5   0.000000  23.495019  10.100574   1.953968   # H_
 446 2 5   0.000000  23.040048  11.640499   1.217154   # H_
 447 2 5   0.000000  18.215483   4.535164   1.745326   # H_
 448 2 5   0.000000  18.882478   2.914251   1.401485   # H_
 449 2 7   0.000000  17.048079   3.363639   0.323125   # C_3
 450 2 5   0.000000  16.399713   4.240675   0.194111   # H_
 451 2 5   0.000000  16.495953   2.630180   0.915706   # H_
 452 2 7   0.000000  17.442136   2.840076  25.837079   # C_3
 453 2 5   0.000000  19.541364   2.499912  25.613933   # H_
 454 2 5   0.000000  18.957106   3.849506  24.616908   # H_
 455 2 5   0.000000  16.751513   3.197999  25.065674   # H_
 456 2 5   0.000000  17.423897   1.744956  25.810208   # H_
 457 1 10   0.000000   0.000000   1.933822   3.566410   # O_1
 458 1 6   0.000000   0.000000   3.152223   3.152211   # C_2
 459 1 10   0.000000   0.000000   3.566424   1.933811   # O_1
 460 1 8   0.000000   0.000000   4.209222   4.209211   # C_R
 461 1 8   0.000000   0.000000   3.891921   5.535211   # C_R