 (written by mofun)

1160 atoms
528 bonds
1008 angles
1296 dihedrals
0 impropers

10 atom types
4 bond types
7 angle types
10 dihedral types
   0.000000  26.896000 xlo xhi
   0.000000  26.896000 ylo yhi
   0.000000  26.896000 zlo zhi

Masses

 1 91.2240   # Zr3+4
 2 15.9994   # O_3
 3 12.0107   # C_3
 4 1.0079   # H_
 5 1.0079   # H_
 6 12.0107   # C_2
 7 12.0107   # C_3
 8 12.0107   # C_R
 9 15.9994   # O_1
 10 15.9994   # O_3

Pair Coeffs

 1   0.069000   2.783168 # Zr3+4
 2   0.060000   3.118146 # O_3
 3   0.105000   3.430851 # C_3
 4   0.044000   2.571134 # H_
 5 0.044000 2.571134   # H_
 6 0.105000 3.430851   # C_2
 7 0.105000 3.430851   # C_3
 8 0.105000 3.430851   # C_R
 9 0.060000 3.118146   # O_1
 10 0.060000 3.118146   # O_3

Bond Coeffs

 1 572.510195 1.366311   # C_R O_3
 2 539.248552 1.393845   # C_3 O_3
 3 349.795899 1.514000   # C_3 C_3
 4 331.069389 1.109401   # C_3 H_

Angle Coeffs

 1 cosine/periodic  271.563462  -1  3   # C_R C_R O_3
 2 fourier  320.948910  0.300235  0.267331  0.266745   # C_3 O_3 C_R
 3 fourier  290.032745  0.343737  0.374972  0.281246   # C_3 C_3 O_3
 4 fourier  165.777838  0.343737  0.374972  0.281246   # H_ C_3 O_3
 5 fourier  117.318683  0.343737  0.374972  0.281246   # C_3 C_3 H_
 6 fourier  75.498766  0.343737  0.374972  0.281246   # H_ C_3 H_
 7 fourier  214.211821  0.343737  0.374972  0.281246   # C_3 C_3 C_3

Dihedral Coeffs

 1 harmonic 3.368555 -1 2   # C_2 C_R C_R O_3 M=4
 2 harmonic 3.368555 -1 2   # C_R C_R C_R O_3 M=4
 3 harmonic 3.368555 -1 2   # H_ C_R C_R O_3 M=4
 4 harmonic 2.500000 1 2   # C_3 O_3 C_R C_R M=2
 5 harmonic 0.032550 1 3   # C_3 C_3 O_3 C_R M=3
 6 harmonic 0.032550 1 3   # C_R O_3 C_3 H_ M=3
 7 harmonic 0.117722 1 3   # H_ C_3 C_3 O_3 M=9
 8 harmonic 0.117722 1 3   # C_3 C_3 C_3 O_3 M=9
 9 harmonic 0.117722 1 3   # H_ C_3 C_3 H_ M=9
 10 harmonic 0.117722 1 3   # C_3 C_3 C_3 H_ M=9

Atoms

 1 1 1   0.000000   2.475508   0.000000   0.000000   # Zr3+4
 2 1 1   0.000000  24.420492   0.000000   0.000000   # Zr3+4
 3 1 1   0.000000   0.000000   2.475508   0.000000   # Zr3+4
 4 1 1   0.000000   0.000000  24.420492   0.000000   # Zr3+4
 5 1 1   0.000000   0.000000   0.000000   2.475508   # Zr3+4
 6 1 1   0.000000   0.000000   0.000000  24.420492   # Zr3+4
 7 1 1   0.000000   2.475508  13.448000  13.448000   # Zr3+4
 8 1 1   0.000000  24.420492  13.448000  13.448000   # Zr3+4
 9 1 1   0.000000   0.000000  15.923508  13.448000   # Zr3+4
 10 1 1   0.000000   0.000000  10.972492  13.448000   # Zr3+4
 11 1 1   0.000000   0.000000  13.448000  15.923508   # Zr3+4
 12 1 1   0.000000   0.000000  13.448000  10.972492   # Zr3+4
 13 1 1   0.000000  15.923508   0.000000  13.448000   # Zr3+4
 14 1 1   0.000000  10.972492   0.000000  13.448000   # Zr3+4
 15 1 1   0.000000  13.448000   2.475508  13.448000   # Zr3+4
 16 1 1   0.000000  13.448000  24.420492  13.448000   # Zr3+4
 17 1 1   0.000000  13.448000   0.000000  15.923508   # Zr3+4
 18 1 1   0.000000  13.448000   0.000000  10.972492   # Zr3+4
 19 1 1   0.000000  15.923508  13.448000   0.000000   # Zr3+4
 20 1 1   0.000000  10.972492  13.448000   0.000000   # Zr3+4
 21 1 1   0.000000  13.448000  15.923508   0.000000   # Zr3+4
 22 1 1   0.000000  13.448000  10.972492   0.000000   # Zr3+4
 23 1 1   0.000000  13.448000  13.448000   2.475508   # Zr3+4
 24 1 1   0.000000  13.448000  13.448000  24.420492   # Zr3+4
 25 1 2   0.000000   1.221078   1.221078   1.221078   # O_3
 26 1 2   0.000000  25.674922  25.674922   1.221078   # O_3
 27 1 2   0.000000  25.674922   1.221078  25.674922   # O_3
 28 1 2   0.000000   1.221078  25.674922  25.674922   # O_3
 29 1 2   0.000000   1.221078   1.221078  25.674922   # O_3
 30 1 2   0.000000  25.674922  25.674922  25.674922   # O_3
 31 1 2   0.000000   1.221078  25.674922   1.221078   # O_3
 32 1 2   0.000000  25.674922   1.221078   1.221078   # O_3
 33 1 2   0.000000   1.221078  14.669078  14.669078   # O_3
 34 1 2   0.000000  25.674922  12.226922  14.669078   # O_3
 35 1 2   0.000000  25.674922  14.669078  12.226922   # O_3
 36 1 2   0.000000   1.221078  12.226922  12.226922   # O_3
 37 1 2   0.000000   1.221078  14.669078  12.226922   # O_3
 38 1 2   0.000000  25.674922  12.226922  12.226922   # O_3
 39 1 2   0.000000   1.221078  12.226922  14.669078   # O_3
 40 1 2   0.000000  25.674922  14.669078  14.669078   # O_3
 41 1 2   0.000000  14.669078   1.221078  14.669078   # O_3
 42 1 2   0.000000  12.226922  25.674922  14.669078   # O_3
 43 1 2   0.000000  12.226922   1.221078  12.226922   # O_3
 44 1 2   0.000000  14.669078  25.674922  12.226922   # O_3
 45 1 2   0.000000  14.669078   1.221078  12.226922   # O_3
 46 1 2   0.000000  12.226922  25.674922  12.226922   # O_3
 47 1 2   0.000000  14.669078  25.674922  14.669078   # O_3
 48 1 2   0.000000  12.226922   1.221078  14.669078   # O_3
 49 1 2   0.000000  14.669078  14.669078   1.221078   # O_3
 50 1 2   0.000000  12.226922  12.226922   1.221078   # O_3
 51 1 2   0.000000  12.226922  14.669078  25.674922   # O_3
 52 1 2   0.000000  14.669078  12.226922  25.674922   # O_3
 53 1 2   0.000000  14.669078  14.669078  25.674922   # O_3
 54 1 2   0.000000  12.226922  12.226922  25.674922   # O_3
 55 1 2   0.000000  14.669078  12.226922   1.221078   # O_3
 56 1 2   0.000000  12.226922  14.669078   1.221078   # O_3
 57 1 9   0.000000   3.566410   0.000000   1.933822   # O_1
 58 1 6   0.000000   3.152211   0.000000   3.152223   # C_2
 59 1 9   0.000000   1.933811  26.896000   3.566424   # O_1
 60 1 8   0.000000   4.209211   0.000000   4.209222   # C_R
 61 1 8   0.000000   5.535211   0.000000   3.891921   # C_R
 62 1 8   0.000000   3.891912   0.000000   5.535222   # C_R
 63 1 8   0.000000   6.508812   0.000000   4.827820   # C_R
 64 1 5   0.000000   5.780010  26.896000   2.996221   # H_
 65 1 8   0.000000   4.827813  26.896000   6.508821   # C_R
 66 2 10   0.000000   2.689085  26.382479   5.999188   # O_3
 67 1 8   0.000000   6.204913   0.000000   6.204920   # C_R
 68 1 8   0.000000   7.243114  26.896000   7.243120   # C_R
 69 1 5   0.000000   7.399112   0.000000   4.558920   # H_
 70 1 8   0.000000   8.620213   0.000000   6.939219   # C_R
 71 1 5   0.000000   4.558914   0.000000   7.399122   # H_
 72 1 8   0.000000   6.939215   0.000000   8.620220   # C_R
 73 1 8   0.000000   9.556114   0.000000   7.912818   # C_R
 74 1 5   0.000000   8.889113  26.896000   6.048918   # H_
 75 1 8   0.000000   7.912815   0.000000   9.556119   # C_R
 76 1 5   0.000000   6.048915   0.000000   8.889121   # H_
 77 1 8   0.000000   9.238815  26.896000   9.238818   # C_R
 78 1 6   0.000000  10.295816  26.896000  10.295817   # C_2
 79 2 10   0.000000  10.884038  26.879661   7.568269   # O_3
 80 1 5   0.000000   7.668016   0.000000  10.451819   # H_
 81 1 9   0.000000  11.514216   0.000000   9.881616   # O_1
 82 1 9   0.000000   9.881617   0.000000  11.514218   # O_1
 83 2 7   0.000000  11.351302   0.000355   6.228528   # C_3
 84 2 7   0.000000   1.681254   0.446931   6.298086   # C_3
 85 2 7   0.000000  12.877981  26.852948   6.315917   # C_3
 86 2 5   0.000000  11.022451   0.918195   5.730328   # H_
 87 2 5   0.000000  10.987369  26.017066   5.685229   # H_
 88 2 5   0.000000  13.232857   0.813670   6.903734   # H_
 89 2 7   0.000000  13.590089  26.815005   4.967858   # C_3
 90 2 5   0.000000  13.170225  25.966595   6.894699   # H_
 91 2 5   0.000000  13.245767  25.953727   4.384540   # H_
 92 2 5   0.000000  14.661966  26.667758   5.148550   # H_
 93 2 7   0.000000   1.199055   0.244281   7.738117   # C_3
 94 2 5   0.000000   0.824623   0.255282   5.642032   # H_
 95 2 5   0.000000   2.010898   1.479700   6.138271   # H_
 96 2 7   0.000000   0.943833  25.667364   8.083782   # C_3
 97 2 5   0.000000   0.286190   0.831641   7.890109   # H_
 98 2 5   0.000000   1.957936   0.635657   8.425799   # H_
 99 2 5   0.000000   0.288795  25.207994   7.333588   # H_
 100 2 5   0.000000   1.889425  25.112830   8.070515   # H_
 101 2 5   0.000000  13.390752   0.829714   4.442716   # H_
 102 2 5   0.000000   0.490190  25.630252   9.052148   # H_
 103 1 9   0.000000  23.329590   0.000000   1.933822   # O_1
 104 1 6   0.000000  23.743789   0.000000   3.152223   # C_2
 105 1 9   0.000000  24.962189   0.000000   3.566424   # O_1
 106 1 8   0.000000  22.686789   0.000000   4.209222   # C_R
 107 1 8   0.000000  21.360789  26.896000   3.891921   # C_R
 108 1 8   0.000000  23.004088   0.000000   5.535222   # C_R
 109 1 8   0.000000  20.387188  26.896000   4.827820   # C_R
 110 1 5   0.000000  21.115990  26.896000   2.996221   # H_
 111 1 8   0.000000  22.068187   0.000000   6.508821   # C_R
 112 2 10   0.000000  24.206915   0.513521   5.999188   # O_3
 113 1 8   0.000000  20.691087   0.000000   6.204920   # C_R
 114 1 8   0.000000  19.652886  26.896000   7.243120   # C_R
 115 1 5   0.000000  19.496888  26.896000   4.558920   # H_
 116 1 8   0.000000  18.275787  26.896000   6.939219   # C_R
 117 1 5   0.000000  22.337086   0.000000   7.399122   # H_
 118 1 8   0.000000  19.956785   0.000000   8.620220   # C_R
 119 1 8   0.000000  17.339886  26.896000   7.912818   # C_R
 120 1 5   0.000000  18.006887  26.896000   6.048918   # H_
 121 1 8   0.000000  18.983185   0.000000   9.556119   # C_R
 122 1 5   0.000000  20.847085   0.000000   8.889121   # H_
 123 1 8   0.000000  17.657185  26.896000   9.238818   # C_R
 124 1 6   0.000000  16.600184  26.896000  10.295817   # C_2
 125 2 10   0.000000  16.011962   0.016339   7.568269   # O_3
 126 1 5   0.000000  19.227984   0.000000  10.451819   # H_
 127 1 9   0.000000  15.381784  26.896000   9.881616   # O_1
 128 1 9   0.000000  17.014383  26.896000  11.514218   # O_1
 129 2 7   0.000000  15.544698  26.895645   6.228528   # C_3
 130 2 7   0.000000  25.214746  26.449069   6.298086   # C_3
 131 2 7   0.000000  14.018019   0.043052   6.315917   # C_3
 132 2 5   0.000000  15.873549  25.977805   5.730328   # H_
 133 2 5   0.000000  15.908631   0.878934   5.685229   # H_
 134 2 5   0.000000  13.663143  26.082330   6.903734   # H_
 135 2 7   0.000000  13.305911   0.080995   4.967858   # C_3
 136 2 5   0.000000  13.725775   0.929405   6.894699   # H_
 137 2 5   0.000000  13.650233   0.942273   4.384540   # H_
 138 2 5   0.000000  12.234034   0.228242   5.148550   # H_
 139 2 7   0.000000  25.696945  26.651719   7.738117   # C_3
 140 2 5   0.000000  26.071377  26.640718   5.642032   # H_
 141 2 5   0.000000  24.885102  25.416300   6.138271   # H_
 142 2 7   0.000000  25.952167   1.228636   8.083782   # C_3
 143 2 5   0.000000  26.609810  26.064359   7.890109   # H_
 144 2 5   0.000000  24.938064  26.260343   8.425799   # H_
 145 2 5   0.000000  26.607205   1.688006   7.333588   # H_
 146 2 5   0.000000  25.006575   1.783170   8.070515   # H_
 147 2 5   0.000000  13.505248  26.066286   4.442716   # H_
 148 2 5   0.000000  26.405810   1.265748   9.052148   # H_
 149 1 9   0.000000  23.329590   0.000000  24.962178   # O_1
 150 1 6   0.000000  23.743789   0.000000  23.743777   # C_2
 151 1 9   0.000000  24.962189   0.000000  23.329576   # O_1
 152 1 8   0.000000  22.686789   0.000000  22.686778   # C_R
 153 1 8   0.000000  21.360789  26.896000  23.004079   # C_R
 154 1 8   0.000000  23.004088   0.000000  21.360778   # C_R
 155 1 8   0.000000  20.387188  26.896000  22.068180   # C_R
 156 1 5   0.000000  21.115990  26.896000  23.899779   # H_
 157 1 8   0.000000  22.068187   0.000000  20.387179   # C_R
 158 2 10   0.000000  24.206915  26.382479  20.896812   # O_3
 159 1 8   0.000000  20.691087   0.000000  20.691080   # C_R
 160 1 8   0.000000  19.652886  26.896000  19.652880   # C_R
 161 1 5   0.000000  19.496888  26.896000  22.337080   # H_
 162 1 8   0.000000  18.275787  26.896000  19.956781   # C_R
 163 1 5   0.000000  22.337086   0.000000  19.496878   # H_
 164 1 8   0.000000  19.956785   0.000000  18.275780   # C_R
 165 1 8   0.000000  17.339886  26.896000  18.983182   # C_R
 166 1 5   0.000000  18.006887  26.896000  20.847082   # H_
 167 1 8   0.000000  18.983185   0.000000  17.339881   # C_R
 168 1 5   0.000000  20.847085   0.000000  18.006879   # H_
 169 1 8   0.000000  17.657185  26.896000  17.657182   # C_R
 170 1 6   0.000000  16.600184  26.896000  16.600183   # C_2
 171 2 10   0.000000  16.011962  26.879661  19.327731   # O_3
 172 1 5   0.000000  19.227984   0.000000  16.444181   # H_
 173 1 9   0.000000  15.381784  26.896000  17.014384   # O_1
 174 1 9   0.000000  17.014383  26.896000  15.381782   # O_1
 175 2 7   0.000000  15.544698   0.000355  20.667472   # C_3
 176 2 7   0.000000  25.214746   0.446931  20.597914   # C_3
 177 2 7   0.000000  14.018019  26.852948  20.580083   # C_3
 178 2 5   0.000000  15.873549   0.918195  21.165672   # H_
 179 2 5   0.000000  15.908631  26.017066  21.210771   # H_
 180 2 5   0.000000  13.663143   0.813670  19.992266   # H_
 181 2 7   0.000000  13.305911  26.815005  21.928142   # C_3
 182 2 5   0.000000  13.725775  25.966595  20.001301   # H_
 183 2 5   0.000000  13.650233  25.953727  22.511460   # H_
 184 2 5   0.000000  12.234034  26.667758  21.747450   # H_
 185 2 7   0.000000  25.696945   0.244281  19.157883   # C_3
 186 2 5   0.000000  26.071377   0.255282  21.253968   # H_
 187 2 5   0.000000  24.885102   1.479700  20.757729   # H_
 188 2 7   0.000000  25.952167  25.667364  18.812218   # C_3
 189 2 5   0.000000  26.609810   0.831641  19.005891   # H_
 190 2 5   0.000000  24.938064   0.635657  18.470201   # H_
 191 2 5   0.000000  26.607205  25.207994  19.562412   # H_
 192 2 5   0.000000  25.006575  25.112830  18.825485   # H_
 193 2 5   0.000000  13.505248   0.829714  22.453284   # H_
 194 2 5   0.000000  26.405810  25.630252  17.843852   # H_
 195 1 9   0.000000   3.566410   0.000000  24.962178   # O_1
 196 1 6   0.000000   3.152211   0.000000  23.743777   # C_2
 197 1 9   0.000000   1.933811   0.000000  23.329576   # O_1
 198 1 8   0.000000   4.209211   0.000000  22.686778   # C_R
 199 1 8   0.000000   5.535211   0.000000  23.004079   # C_R
 200 1 8   0.000000   3.891912   0.000000  21.360778   # C_R
 201 1 8   0.000000   6.508812   0.000000  22.068180   # C_R
 202 1 5   0.000000   5.780010   0.000000  23.899779   # H_
 203 1 8   0.000000   4.827813   0.000000  20.387179   # C_R
 204 2 10   0.000000   2.689085   0.513521  20.896812   # O_3
 205 1 8   0.000000   6.204913   0.000000  20.691080   # C_R
 206 1 8   0.000000   7.243114   0.000000  19.652880   # C_R
 207 1 5   0.000000   7.399112   0.000000  22.337080   # H_
 208 1 8   0.000000   8.620213   0.000000  19.956781   # C_R
 209 1 5   0.000000   4.558914   0.000000  19.496878   # H_
 210 1 8   0.000000   6.939215   0.000000  18.275780   # C_R
 211 1 8   0.000000   9.556114   0.000000  18.983182   # C_R
 212 1 5   0.000000   8.889113   0.000000  20.847082   # H_
 213 1 8   0.000000   7.912815   0.000000  17.339881   # C_R
 214 1 5   0.000000   6.048915   0.000000  18.006879   # H_
 215 1 8   0.000000   9.238815   0.000000  17.657182   # C_R
 216 1 6   0.000000  10.295816   0.000000  16.600183   # C_2
 217 2 10   0.000000  10.884038   0.016339  19.327731   # O_3
 218 1 5   0.000000   7.668016   0.000000  16.444181   # H_
 219 1 9   0.000000  11.514216   0.000000  17.014384   # O_1
 220 1 9   0.000000   9.881617   0.000000  15.381782   # O_1
 221 2 7   0.000000  11.351302  26.895645  20.667472   # C_3
 222 2 7   0.000000   1.681254  26.449069  20.597914   # C_3
 223 2 7   0.000000  12.877981   0.043052  20.580083   # C_3
 224 2 5   0.000000  11.022451  25.977805  21.165672   # H_
 225 2 5   0.000000  10.987369   0.878934  21.210771   # H_
 226 2 5   0.000000  13.232857  26.082330  19.992266   # H_
 227 2 7   0.000000  13.590089   0.080995  21.928142   # C_3
 228 2 5   0.000000  13.170225   0.929405  20.001301   # H_
 229 2 5   0.000000  13.245767   0.942273  22.511460   # H_
 230 2 5   0.000000  14.661966   0.228242  21.747450   # H_
 231 2 7   0.000000   1.199055  26.651719  19.157883   # C_3
 232 2 5   0.000000   0.824623  26.640718  21.253968   # H_
 233 2 5   0.000000   2.010898  25.416300  20.757729   # H_
 234 2 7   0.000000   0.943833   1.228636  18.812218   # C_3
 235 2 5   0.000000   0.286190  26.064359  19.005891   # H_
 236 2 5   0.000000   1.957936  26.260343  18.470201   # H_
 237 2 5   0.000000   0.288795   1.688006  19.562412   # H_
 238 2 5   0.000000   1.889425   1.783170  18.825485   # H_
 239 2 5   0.000000  13.390752  26.066286  22.453284   # H_
 240 2 5   0.000000   0.490190   1.265748  17.843852   # H_
 241 1 9   0.000000   1.933822   3.566410   0.000000   # O_1
 242 1 6   0.000000   3.152223   3.152211   0.000000   # C_2
 243 1 9   0.000000   3.566424   1.933811   0.000000   # O_1
 244 1 8   0.000000   4.209222   4.209211   0.000000   # C_R
 245 1 8   0.000000   3.891921   5.535211  26.896000   # C_R
 246 1 8   0.000000   5.535222   3.891912   0.000000   # C_R
 247 1 8   0.000000   4.827820   6.508812  26.896000   # C_R
 248 1 5   0.000000   2.996221   5.780010  26.896000   # H_
 249 1 8   0.000000   6.508821   4.827813   0.000000   # C_R
 250 2 10   0.000000   5.999188   2.689085  26.382479   # O_3
 251 1 8   0.000000   6.204920   6.204913   0.000000   # C_R
 252 1 8   0.000000   7.243120   7.243114  26.896000   # C_R
 253 1 5   0.000000   4.558920   7.399112  26.896000   # H_
 254 1 8   0.000000   6.939219   8.620213  26.896000   # C_R
 255 1 5   0.000000   7.399122   4.558914   0.000000   # H_
 256 1 8   0.000000   8.620220   6.939215   0.000000   # C_R
 257 1 8   0.000000   7.912818   9.556114  26.896000   # C_R
 258 1 5   0.000000   6.048918   8.889113  26.896000   # H_
 259 1 8   0.000000   9.556119   7.912815   0.000000   # C_R
 260 1 5   0.000000   8.889121   6.048915   0.000000   # H_
 261 1 8   0.000000   9.238818   9.238815  26.896000   # C_R
 262 1 6   0.000000  10.295817  10.295816  26.896000   # C_2
 263 2 10   0.000000   7.568269  10.884038  26.879661   # O_3
 264 1 5   0.000000  10.451819   7.668016   0.000000   # H_
 265 1 9   0.000000   9.881616  11.514216  26.896000   # O_1
 266 1 9   0.000000  11.514218   9.881617  26.896000   # O_1
 267 2 7   0.000000   6.228528  11.351302   0.000355   # C_3
 268 2 7   0.000000   6.298086   1.681254   0.446931   # C_3
 269 2 7   0.000000   6.315917  12.877981  26.852948   # C_3
 270 2 5   0.000000   5.730328  11.022451   0.918195   # H_
 271 2 5   0.000000   5.685229  10.987369  26.017066   # H_
 272 2 5   0.000000   6.903734  13.232857   0.813670   # H_
 273 2 7   0.000000   4.967858  13.590089  26.815005   # C_3
 274 2 5   0.000000   6.894699  13.170225  25.966595   # H_
 275 2 5   0.000000   4.384540  13.245767  25.953727   # H_
 276 2 5   0.000000   5.148550  14.661966  26.667758   # H_
 277 2 7   0.000000   7.738117   1.199055   0.244281   # C_3
 278 2 5   0.000000   5.642032   0.824623   0.255282   # H_
 279 2 5   0.000000   6.138271   2.010898   1.479700   # H_
 280 2 7   0.000000   8.083782   0.943833  25.667364   # C_3
 281 2 5   0.000000   7.890109   0.286190   0.831641   # H_
 282 2 5   0.000000   8.425799   1.957936   0.635657   # H_
 283 2 5   0.000000   7.333588   0.288795  25.207994   # H_
 284 2 5   0.000000   8.070515   1.889425  25.112830   # H_
 285 2 5   0.000000   4.442716  13.390752   0.829714   # H_
 286 2 5   0.000000   9.052148   0.490190  25.630252   # H_
 287 1 9   0.000000   1.933822  23.329590   0.000000   # O_1
 288 1 6   0.000000   3.152223  23.743789   0.000000   # C_2
 289 1 9   0.000000   3.566424  24.962189   0.000000   # O_1
 290 1 8   0.000000   4.209222  22.686789   0.000000   # C_R
 291 1 8   0.000000   3.891921  21.360789   0.000000   # C_R
 292 1 8   0.000000   5.535222  23.004088   0.000000   # C_R
 293 1 8   0.000000   4.827820  20.387188   0.000000   # C_R
 294 1 5   0.000000   2.996221  21.115990   0.000000   # H_
 295 1 8   0.000000   6.508821  22.068187   0.000000   # C_R
 296 2 10   0.000000   5.999188  24.206915   0.513521   # O_3
 297 1 8   0.000000   6.204920  20.691087   0.000000   # C_R
 298 1 8   0.000000   7.243120  19.652886   0.000000   # C_R
 299 1 5   0.000000   4.558920  19.496888   0.000000   # H_
 300 1 8   0.000000   6.939219  18.275787   0.000000   # C_R
 301 1 5   0.000000   7.399122  22.337086   0.000000   # H_
 302 1 8   0.000000   8.620220  19.956785   0.000000   # C_R
 303 1 8   0.000000   7.912818  17.339886   0.000000   # C_R
 304 1 5   0.000000   6.048918  18.006887   0.000000   # H_
 305 1 8   0.000000   9.556119  18.983185   0.000000   # C_R
 306 1 5   0.000000   8.889121  20.847085   0.000000   # H_
 307 1 8   0.000000   9.238818  17.657185   0.000000   # C_R
 308 1 6   0.000000  10.295817  16.600184   0.000000   # C_2
 309 2 10   0.000000   7.568269  16.011962   0.016339   # O_3
 310 1 5   0.000000  10.451819  19.227984   0.000000   # H_
 311 1 9   0.000000   9.881616  15.381784   0.000000   # O_1
 312 1 9   0.000000  11.514218  17.014383   0.000000   # O_1
 313 2 7   0.000000   6.228528  15.544698  26.895645   # C_3
 314 2 7   0.000000   6.298086  25.214746  26.449069   # C_3
 315 2 7   0.000000   6.315917  14.018019   0.043052   # C_3
 316 2 5   0.000000   5.730328  15.873549  25.977805   # H_
 317 2 5   0.000000   5.685229  15.908631   0.878934   # H_
 318 2 5   0.000000   6.903734  13.663143  26.082330   # H_
 319 2 7   0.000000   4.967858  13.305911   0.080995   # C_3
 320 2 5   0.000000   6.894699  13.725775   0.929405   # H_
 321 2 5   0.000000   4.384540  13.650233   0.942273   # H_
 322 2 5   0.000000   5.148550  12.234034   0.228242   # H_
 323 2 7   0.000000   7.738117  25.696945  26.651719   # C_3
 324 2 5   0.000000   5.642032  26.071377  26.640718   # H_
 325 2 5   0.000000   6.138271  24.885102  25.416300   # H_
 326 2 7   0.000000   8.083782  25.952167   1.228636   # C_3
 327 2 5   0.000000   7.890109  26.609810  26.064359   # H_
 328 2 5   0.000000   8.425799  24.938064  26.260343   # H_
 329 2 5   0.000000   7.333588  26.607205   1.688006   # H_
 330 2 5   0.000000   8.070515  25.006575   1.783170   # H_
 331 2 5   0.000000   4.442716  13.505248  26.066286   # H_
 332 2 5   0.000000   9.052148  26.405810   1.265748   # H_
 333 1 9   0.000000  24.962178  23.329590   0.000000   # O_1
 334 1 6   0.000000  23.743777  23.743789   0.000000   # C_2
 335 1 9   0.000000  23.329576  24.962189   0.000000   # O_1
 336 1 8   0.000000  22.686778  22.686789   0.000000   # C_R
 337 1 8   0.000000  23.004079  21.360789  26.896000   # C_R
 338 1 8   0.000000  21.360778  23.004088   0.000000   # C_R
 339 1 8   0.000000  22.068180  20.387188  26.896000   # C_R
 340 1 5   0.000000  23.899779  21.115990  26.896000   # H_
 341 1 8   0.000000  20.387179  22.068187   0.000000   # C_R
 342 2 10   0.000000  20.896812  24.206915  26.382479   # O_3
 343 1 8   0.000000  20.691080  20.691087   0.000000   # C_R
 344 1 8   0.000000  19.652880  19.652886  26.896000   # C_R
 345 1 5   0.000000  22.337080  19.496888  26.896000   # H_
 346 1 8   0.000000  19.956781  18.275787  26.896000   # C_R
 347 1 5   0.000000  19.496878  22.337086   0.000000   # H_
 348 1 8   0.000000  18.275780  19.956785   0.000000   # C_R
 349 1 8   0.000000  18.983182  17.339886  26.896000   # C_R
 350 1 5   0.000000  20.847082  18.006887  26.896000   # H_
 351 1 8   0.000000  17.339881  18.983185   0.000000   # C_R
 352 1 5   0.000000  18.006879  20.847085   0.000000   # H_
 353 1 8   0.000000  17.657182  17.657185  26.896000   # C_R
 354 1 6   0.000000  16.600183  16.600184  26.896000   # C_2
 355 2 10   0.000000  19.327731  16.011962  26.879661   # O_3
 356 1 5   0.000000  16.444181  19.227984   0.000000   # H_
 357 1 9   0.000000  17.014384  15.381784  26.896000   # O_1
 358 1 9   0.000000  15.381782  17.014383   0.000000   # O_1
 359 2 7   0.000000  20.667472  15.544698   0.000355   # C_3
 360 2 7   0.000000  20.597914  25.214746   0.446931   # C_3
 361 2 7   0.000000  20.580083  14.018019  26.852948   # C_3
 362 2 5   0.000000  21.165672  15.873549   0.918195   # H_
 363 2 5   0.000000  21.210771  15.908631  26.017066   # H_
 364 2 5   0.000000  19.992266  13.663143   0.813670   # H_
 365 2 7   0.000000  21.928142  13.305911  26.815005   # C_3
 366 2 5   0.000000  20.001301  13.725775  25.966595   # H_
 367 2 5   0.000000  22.511460  13.650233  25.953727   # H_
 368 2 5   0.000000  21.747450  12.234034  26.667758   # H_
 369 2 7   0.000000  19.157883  25.696945   0.244281   # C_3
 370 2 5   0.000000  21.253968  26.071377   0.255282   # H_
 371 2 5   0.000000  20.757729  24.885102   1.479700   # H_
 372 2 7   0.000000  18.812218  25.952167  25.667364   # C_3
 373 2 5   0.000000  19.005891  26.609810   0.831641   # H_
 374 2 5   0.000000  18.470201  24.938064   0.635657   # H_
 375 2 5   0.000000  19.562412  26.607205  25.207994   # H_
 376 2 5   0.000000  18.825485  25.006575  25.112830   # H_
 377 2 5   0.000000  22.453284  13.505248   0.829714   # H_
 378 2 5   0.000000  17.843852  26.405810  25.630252   # H_
 379 1 9   0.000000  24.962178   3.566410   0.000000   # O_1
 380 1 6   0.000000  23.743777   3.152211   0.000000   # C_2
 381 1 9   0.000000  23.329576   1.933811   0.000000   # O_1
 382 1 8   0.000000  22.686778   4.209211   0.000000   # C_R
 383 1 8   0.000000  23.004079   5.535211   0.000000   # C_R
 384 1 8   0.000000  21.360778   3.891912   0.000000   # C_R
 385 1 8   0.000000  22.068180   6.508812   0.000000   # C_R
 386 1 5   0.000000  23.899779   5.780010   0.000000   # H_
 387 1 8   0.000000  20.387179   4.827813   0.000000   # C_R
 388 2 10   0.000000  20.896812   2.689085   0.513521   # O_3
 389 1 8   0.000000  20.691080   6.204913   0.000000   # C_R
 390 1 8   0.000000  19.652880   7.243114   0.000000   # C_R
 391 1 5   0.000000  22.337080   7.399112   0.000000   # H_
 392 1 8   0.000000  19.956781   8.620213   0.000000   # C_R
 393 1 5   0.000000  19.496878   4.558914   0.000000   # H_
 394 1 8   0.000000  18.275780   6.939215   0.000000   # C_R
 395 1 8   0.000000  18.983182   9.556114   0.000000   # C_R
 396 1 5   0.000000  20.847082   8.889113   0.000000   # H_
 397 1 8   0.000000  17.339881   7.912815   0.000000   # C_R
 398 1 5   0.000000  18.006879   6.048915   0.000000   # H_
 399 1 8   0.000000  17.657182   9.238815   0.000000   # C_R
 400 1 6   0.000000  16.600183  10.295816   0.000000   # C_2
 401 2 10   0.000000  19.327731  10.884038   0.016339   # O_3
 402 1 5   0.000000  16.444181   7.668016   0.000000   # H_
 403 1 9   0.000000  17.014384  11.514216   0.000000   # O_1
 404 1 9   0.000000  15.381782   9.881617   0.000000   # O_1
 405 2 7   0.000000  20.667472  11.351302  26.895645   # C_3
 406 2 7   0.000000  20.597914   1.681254  26.449069   # C_3
 407 2 7   0.000000  20.580083  12.877981   0.043052   # C_3
 408 2 5   0.000000  21.165672  11.022451  25.977805   # H_
 409 2 5   0.000000  21.210771  10.987369   0.878934   # H_
 410 2 5   0.000000  19.992266  13.232857  26.082330   # H_
 411 2 7   0.000000  21.928142  13.590089   0.080995   # C_3
 412 2 5   0.000000  20.001301  13.170225   0.929405   # H_
 413 2 5   0.000000  22.511460  13.245767   0.942273   # H_
 414 2 5   0.000000  21.747450  14.661966   0.228242   # H_
 415 2 7   0.000000  19.157883   1.199055  26.651719   # C_3
 416 2 5   0.000000  21.253968   0.824623  26.640718   # H_
 417 2 5   0.000000  20.757729   2.010898  25.416300   # H_
 418 2 7   0.000000  18.812218   0.943833   1.228636   # C_3
 419 2 5   0.000000  19.005891   0.286190  26.064359   # H_
 420 2 5   0.000000  18.470201   1.957936  26.260343   # H_
 421 2 5   0.000000  19.562412   0.288795   1.688006   # H_
 422 2 5   0.000000  18.825485   1.889425   1.783170   # H_
 423 2 5   0.000000  22.453284  13.390752  26.066286   # H_
 424 2 5   0.000000  17.843852   0.490190   1.265748   # H_
 425 1 9   0.000000   0.000000   1.933822   3.566410   # O_1
 426 1 6   0.000000   0.000000   3.152223   3.152211   # C_2
 427 1 9   0.000000   0.000000   3.566424   1.933811   # O_1
 428 1 8   0.000000   0.000000   4.209222   4.209211   # C_R
 429 1 8   0.000000   0.000000   3.891921   5.535211   # C_R
 430 1 8   0.000000   0.000000   5.535222   3.891912   # C_R
 431 1 8   0.000000   0.000000   4.827820   6.508812   # C_R
 432 1 5   0.000000   0.000000   2.996221   5.780010   # H_
 433 1 8   0.000000   0.000000   6.508821   4.827813   # C_R
 434 2 10   0.000000  26.382479   5.999188   2.689085   # O_3
 435 1 8   0.000000   0.000000   6.204920   6.204913   # C_R
 436 1 8   0.000000   0.000000   7.243120   7.243114   # C_R
 437 1 5   0.000000   0.000000   4.558920   7.399112   # H_
 438 1 8   0.000000   0.000000   6.939219   8.620213   # C_R
 439 1 5   0.000000   0.000000   7.399122   4.558914   # H_
 440 1 8   0.000000   0.000000   8.620220   6.939215   # C_R
 441 1 8   0.000000   0.000000   7.912818   9.556114   # C_R
 442 1 5   0.000000   0.000000   6.048918   8.889113   # H_
 443 1 8   0.000000   0.000000   9.556119   7.912815   # C_R
 444 1 5   0.000000   0.000000   8.889121   6.048915   # H_
 445 1 8   0.000000   0.000000   9.238818   9.238815   # C_R
 446 1 6   0.000000   0.000000  10.295817  10.295816   # C_2
 447 2 10   0.000000  26.879661   7.568269  10.884038   # O_3
 448 1 5   0.000000   0.000000  10.451819   7.668016   # H_
 449 1 9   0.000000   0.000000   9.881616  11.514216   # O_1
 450 1 9   0.000000   0.000000  11.514218   9.881617   # O_1
 451 2 7   0.000000   0.000355   6.228528  11.351302   # C_3
 452 2 7   0.000000   0.446931   6.298086   1.681254   # C_3
 453 2 7   0.000000  26.852948   6.315917  12.877981   # C_3
 454 2 5   0.000000   0.918195   5.730328  11.022451   # H_
 455 2 5   0.000000  26.017066   5.685229  10.987369   # H_
 456 2 5   0.000000   0.813670   6.903734  13.232857   # H_
 457 2 7   0.000000  26.815005   4.967858  13.590089   # C_3
 458 2 5   0.000000  25.966595   6.894699  13.170225   # H_
 459 2 5   0.000000  25.953727   4.384540  13.245767   # H_
 460 2 5   0.000000  26.667758   5.148550  14.661966   # H_
 461 2 7   0.000000   0.244281   7.738117   1.199055   # C_3
 462 2 5   0.000000   0.255282   5.642032   0.824623   # H_
 463 2 5   0.000000   1.479700   6.138271   2.010898   # H_
 464 2 7   0.000000  25.667364   8.083782   0.943833   # C_3