 (written by mofun)

1296 atoms
960 bonds
1968 angles
3264 dihedrals
0 impropers

10 atom types
5 bond types
9 angle types
14 dihedral types
   0.000000  20.700400 xlo xhi
   0.000000  20.700400 ylo yhi
   0.000000  20.700400 zlo zhi

Masses

 1 91.2240   # Zr3+4
 2 15.9994   # O_3
 3 12.0107   # C_3
 4 1.0079   # H_
 5 1.0079   # H_
 6 12.0107   # C_2
 7 12.0107   # C_3
 8 12.0107   # C_R
 9 14.0067   # N_3
 10 15.9994   # O_1

Pair Coeffs

 1   0.069000   2.783168 # Zr3+4
 2   0.060000   3.118146 # O_3
 3   0.105000   3.430851 # C_3
 4   0.044000   2.571134 # H_
 5 0.044000 2.571134   # H_
 6 0.105000 3.430851   # C_2
 7 0.105000 3.430851   # C_3
 8 0.105000 3.430851   # C_R
 9 0.069000 3.260689   # N_3
 10 0.060000 3.118146   # O_1

Bond Coeffs

 1 560.312976 1.423192   # C_R N_3
 2 527.945261 1.044419   # H_ N_3
 3 528.634538 1.451071   # C_3 N_3
 4 331.069389 1.109401   # C_3 H_
 5 349.795899 1.514000   # C_3 C_3

Angle Coeffs

 1 cosine/periodic  282.369526  -1  3   # C_R C_R N_3
 2 fourier  268.482172  0.317506  0.313225  0.272502   # C_3 N_3 C_R
 3 fourier  150.574599  0.317506  0.313225  0.272502   # C_R N_3 H_
 4 fourier  144.695053  0.317506  0.313225  0.272502   # C_3 N_3 H_
 5 fourier  169.780468  0.343737  0.374972  0.281246   # H_ C_3 N_3
 6 fourier  303.297032  0.343737  0.374972  0.281246   # C_3 C_3 N_3
 7 fourier  117.318683  0.343737  0.374972  0.281246   # C_3 C_3 H_
 8 fourier  214.211821  0.343737  0.374972  0.281246   # C_3 C_3 C_3
 9 fourier  75.498766  0.343737  0.374972  0.281246   # H_ C_3 H_

Dihedral Coeffs

 1 harmonic 3.368555 -1 2   # H_ C_R C_R N_3 M=4
 2 harmonic 3.368555 -1 2   # C_R C_R C_R N_3 M=4
 3 harmonic 3.368555 -1 2   # C_2 C_R C_R N_3 M=4
 4 harmonic 0.125000 -1 6   # C_3 N_3 C_R C_R M=4
 5 harmonic 0.125000 -1 6   # C_R C_R N_3 H_ M=4
 6 harmonic 0.081375 1 3   # C_3 C_3 N_3 C_R M=6
 7 harmonic 0.081375 1 3   # C_R N_3 C_3 H_ M=6
 8 harmonic 0.081375 1 3   # C_3 C_3 N_3 H_ M=6
 9 harmonic 0.081375 1 3   # H_ C_3 N_3 H_ M=6
 10 harmonic 0.117722 1 3   # C_3 C_3 C_3 N_3 M=9
 11 harmonic 0.117722 1 3   # H_ C_3 C_3 N_3 M=9
 12 harmonic 0.117722 1 3   # C_3 C_3 C_3 H_ M=9
 13 harmonic 0.117722 1 3   # H_ C_3 C_3 H_ M=9
 14 harmonic 0.117722 1 3   # C_3 C_3 C_3 C_3 M=9

Atoms

 1 1 1   0.000000   2.481771   0.000000   0.000000   # Zr3+4
 2 1 1   0.000000   2.481771  10.350200  10.350200   # Zr3+4
 3 1 1   0.000000  12.831971   0.000000  10.350200   # Zr3+4
 4 1 1   0.000000  12.831971  10.350200   0.000000   # Zr3+4
 5 1 1   0.000000  18.218629   0.000000   0.000000   # Zr3+4
 6 1 1   0.000000  18.218629  10.350200  10.350200   # Zr3+4
 7 1 1   0.000000   7.868429   0.000000  10.350200   # Zr3+4
 8 1 1   0.000000   7.868429  10.350200   0.000000   # Zr3+4
 9 1 1   0.000000   0.000000   2.481771   0.000000   # Zr3+4
 10 1 1   0.000000   0.000000  12.831971  10.350200   # Zr3+4
 11 1 1   0.000000  10.350200   2.481771  10.350200   # Zr3+4
 12 1 1   0.000000  10.350200  12.831971   0.000000   # Zr3+4
 13 1 1   0.000000   0.000000  18.218629   0.000000   # Zr3+4
 14 1 1   0.000000   0.000000   7.868429  10.350200   # Zr3+4
 15 1 1   0.000000  10.350200  18.218629  10.350200   # Zr3+4
 16 1 1   0.000000  10.350200   7.868429   0.000000   # Zr3+4
 17 1 1   0.000000   0.000000   0.000000   2.481771   # Zr3+4
 18 1 1   0.000000   0.000000  10.350200  12.831971   # Zr3+4
 19 1 1   0.000000  10.350200   0.000000  12.831971   # Zr3+4
 20 1 1   0.000000  10.350200  10.350200   2.481771   # Zr3+4
 21 1 1   0.000000   0.000000   0.000000  18.218629   # Zr3+4
 22 1 1   0.000000   0.000000  10.350200   7.868429   # Zr3+4
 23 1 1   0.000000  10.350200   0.000000   7.868429   # Zr3+4
 24 1 1   0.000000  10.350200  10.350200  18.218629   # Zr3+4
 25 1 2   0.000000   1.161292   9.188908   9.188908   # O_3
 26 1 2   0.000000  11.511492  19.539108   9.188908   # O_3
 27 1 2   0.000000  11.511492   9.188908  19.539108   # O_3
 28 1 2   0.000000   9.188908   1.161292   9.188908   # O_3
 29 1 2   0.000000   9.188908  11.511492  19.539108   # O_3
 30 1 2   0.000000  19.539108  19.539108   1.161292   # O_3
 31 1 2   0.000000  19.539108   9.188908  11.511492   # O_3
 32 1 2   0.000000   1.161292   1.161292   1.161292   # O_3
 33 1 2   0.000000  11.511492  11.511492   1.161292   # O_3
 34 1 2   0.000000  19.539108   1.161292   1.161292   # O_3
 35 1 2   0.000000  19.539108  11.511492  11.511492   # O_3
 36 1 2   0.000000   9.188908   1.161292  11.511492   # O_3
 37 1 2   0.000000   9.188908  11.511492   1.161292   # O_3
 38 1 2   0.000000   1.161292  19.539108   1.161292   # O_3
 39 1 2   0.000000   1.161292   9.188908  11.511492   # O_3
 40 1 2   0.000000  11.511492  19.539108  11.511492   # O_3
 41 1 2   0.000000  11.511492   9.188908   1.161292   # O_3
 42 1 2   0.000000  19.539108  19.539108  19.539108   # O_3
 43 1 2   0.000000  19.539108   9.188908   9.188908   # O_3
 44 1 2   0.000000   9.188908  19.539108   9.188908   # O_3
 45 1 2   0.000000   9.188908   9.188908  19.539108   # O_3
 46 1 2   0.000000   1.161292   1.161292  19.539108   # O_3
 47 1 2   0.000000   1.161292  11.511492   9.188908   # O_3
 48 1 2   0.000000  11.511492   1.161292   9.188908   # O_3
 49 1 6   0.000000   3.179581   0.000000  17.520819   # C_2
 50 1 10   0.000000   3.528595   0.000000  18.727815   # O_1
 51 1 10   0.000000   1.972577  20.700400  17.171832   # O_1
 52 1 8   0.000000   4.243569   0.000000  16.456806   # C_R
 53 1 8   0.000000   3.816555  20.700400  15.162811   # C_R
 54 2 9   0.000000   2.466764  20.679785  14.733226   # N_3
 55 1 5   0.000000   4.580531  20.700400  13.051803   # H_
 56 1 8   0.000000   4.812543  20.700400  14.167800   # C_R
 57 1 8   0.000000   6.106548   0.000000  14.593785   # C_R
 58 1 8   0.000000   6.532563   0.000000  15.887781   # C_R
 59 1 8   0.000000   5.537574   0.000000  16.883792   # C_R
 60 1 5   0.000000   5.769587   0.000000  17.999789   # H_
 61 2 9   0.000000   7.582456   0.000066  16.158843   # N_3
 62 1 10   0.000000   8.377540   0.000000  13.878760   # O_1
 63 1 6   0.000000   7.170536   0.000000  13.529773   # C_2
 64 1 10   0.000000   6.821523  20.700400  12.322777   # O_1
 65 2 5   0.000000   1.899978  20.646891  15.608584   # H_
 66 2 7   0.000000   2.037107   1.092934  13.880371   # C_3
 67 2 5   0.000000   2.759597   1.261498  13.072916   # H_
 68 2 7   0.000000   1.904643   2.410989  14.672472   # C_3
 69 2 7   0.000000   0.707996   0.676044  13.216648   # C_3
 70 2 7   0.000000  20.181437   2.731172  14.020156   # C_3
 71 2 7   0.000000   0.483444   2.649057  15.172293   # C_3
 72 2 5   0.000000   2.177479   3.244187  14.010930   # H_
 73 2 5   0.000000   2.603747   2.454345  15.514266   # H_
 74 2 5   0.000000   0.194398   1.835508  15.848643   # H_
 75 2 5   0.000000   0.439303   3.572359  15.761098   # H_
 76 2 7   0.000000  20.575626   1.884282  12.809699   # C_3
 77 2 5   0.000000  19.673795   1.563115  12.276344   # H_
 78 2 5   0.000000   0.451292   2.498540  12.106200   # H_
 79 2 5   0.000000   0.921807   0.055359  12.337744   # H_
 80 2 5   0.000000  19.196991   2.418123  14.388626   # H_
 81 2 5   0.000000   0.114090   0.047535  13.894070   # H_
 82 2 5   0.000000  20.068880   3.773557  13.698135   # H_
 83 2 7   0.000000   8.446605  20.495381  17.322233   # C_3
 84 2 5   0.000000   8.250394   0.048773  15.364634   # H_
 85 2 7   0.000000   8.416297   0.968092  18.309765   # C_3
 86 2 5   0.000000   9.475194  20.465241  16.930837   # H_
 87 2 7   0.000000   8.219871  19.134541  17.997356   # C_3
 88 2 5   0.000000   7.194131  19.040124  18.368886   # H_
 89 2 7   0.000000   9.177283  18.929559  19.169588   # C_3
 90 2 5   0.000000   8.358720  18.327611  17.267276   # H_
 91 2 7   0.000000   9.106765  20.087707  20.161088   # C_3
 92 2 5   0.000000  10.202532  18.833305  18.791576   # H_
 93 2 5   0.000000   8.936880  17.990307  19.680556   # H_
 94 2 7   0.000000   9.369564   0.728860  19.480973   # C_3
 95 2 5   0.000000   9.839823  19.931016   0.259997   # H_
 96 2 5   0.000000   8.116763  20.104696  20.633283   # H_
 97 2 5   0.000000  10.405050   0.757024  19.119841   # H_
 98 2 5   0.000000   9.265102   1.539036  20.211403   # H_
 99 2 5   0.000000   7.411301   1.131206  18.710508   # H_
 100 2 5   0.000000   8.695747   1.895680  17.795423   # H_
 101 1 6   0.000000   3.179581  10.350200   7.170619   # C_2
 102 1 10   0.000000   3.528595  10.350200   8.377615   # O_1
 103 1 10   0.000000   1.972577  10.350200   6.821632   # O_1
 104 1 8   0.000000   4.243569  10.350200   6.106606   # C_R
 105 1 8   0.000000   3.816555  10.350200   4.812611   # C_R
 106 2 9   0.000000   2.466764  10.329585   4.383026   # N_3
 107 1 5   0.000000   4.580531  10.350200   2.701603   # H_
 108 1 8   0.000000   4.812543  10.350200   3.817600   # C_R
 109 1 8   0.000000   6.106548  10.350200   4.243585   # C_R
 110 1 8   0.000000   6.532563  10.350200   5.537581   # C_R
 111 1 8   0.000000   5.537574  10.350200   6.533592   # C_R
 112 1 5   0.000000   5.769587  10.350200   7.649589   # H_
 113 2 9   0.000000   7.582456  10.350266   5.808643   # N_3
 114 1 10   0.000000   8.377540  10.350200   3.528560   # O_1
 115 1 6   0.000000   7.170536  10.350200   3.179573   # C_2
 116 1 10   0.000000   6.821523  10.350200   1.972577   # O_1
 117 2 5   0.000000   1.899978  10.296691   5.258384   # H_
 118 2 7   0.000000   2.037107  11.443134   3.530171   # C_3
 119 2 5   0.000000   2.759597  11.611698   2.722716   # H_
 120 2 7   0.000000   1.904643  12.761189   4.322272   # C_3
 121 2 7   0.000000   0.707996  11.026244   2.866448   # C_3
 122 2 7   0.000000  20.181437  13.081372   3.669956   # C_3
 123 2 7   0.000000   0.483444  12.999257   4.822093   # C_3
 124 2 5   0.000000   2.177479  13.594387   3.660730   # H_
 125 2 5   0.000000   2.603747  12.804545   5.164066   # H_
 126 2 5   0.000000   0.194398  12.185708   5.498443   # H_
 127 2 5   0.000000   0.439303  13.922559   5.410898   # H_
 128 2 7   0.000000  20.575626  12.234482   2.459499   # C_3
 129 2 5   0.000000  19.673795  11.913315   1.926144   # H_
 130 2 5   0.000000   0.451292  12.848740   1.756000   # H_
 131 2 5   0.000000   0.921807  10.405559   1.987544   # H_
 132 2 5   0.000000  19.196991  12.768323   4.038426   # H_
 133 2 5   0.000000   0.114090  10.397735   3.543870   # H_
 134 2 5   0.000000  20.068880  14.123757   3.347935   # H_
 135 2 7   0.000000   8.446605  10.145181   6.972033   # C_3
 136 2 5   0.000000   8.250394  10.398973   5.014434   # H_
 137 2 7   0.000000   8.416297  11.318292   7.959565   # C_3
 138 2 5   0.000000   9.475194  10.115041   6.580637   # H_
 139 2 7   0.000000   8.219871   8.784341   7.647156   # C_3
 140 2 5   0.000000   7.194131   8.689924   8.018686   # H_
 141 2 7   0.000000   9.177283   8.579359   8.819388   # C_3
 142 2 5   0.000000   8.358720   7.977411   6.917076   # H_
 143 2 7   0.000000   9.106765   9.737507   9.810888   # C_3
 144 2 5   0.000000  10.202532   8.483105   8.441376   # H_
 145 2 5   0.000000   8.936880   7.640107   9.330356   # H_
 146 2 7   0.000000   9.369564  11.079060   9.130773   # C_3
 147 2 5   0.000000   9.839823   9.580816  10.610197   # H_
 148 2 5   0.000000   8.116763   9.754496  10.283083   # H_
 149 2 5   0.000000  10.405050  11.107224   8.769641   # H_
 150 2 5   0.000000   9.265102  11.889236   9.861203   # H_
 151 2 5   0.000000   7.411301  11.481406   8.360308   # H_
 152 2 5   0.000000   8.695747  12.245880   7.445223   # H_
 153 1 6   0.000000  13.529781   0.000000   7.170619   # C_2
 154 1 10   0.000000  13.878795   0.000000   8.377615   # O_1
 155 1 10   0.000000  12.322777  20.700400   6.821632   # O_1
 156 1 8   0.000000  14.593769   0.000000   6.106606   # C_R
 157 1 8   0.000000  14.166755  20.700400   4.812611   # C_R
 158 2 9   0.000000  12.816964  20.679785   4.383026   # N_3
 159 1 5   0.000000  14.930731  20.700400   2.701603   # H_
 160 1 8   0.000000  15.162743  20.700400   3.817600   # C_R
 161 1 8   0.000000  16.456748   0.000000   4.243585   # C_R
 162 1 8   0.000000  16.882763   0.000000   5.537581   # C_R
 163 1 8   0.000000  15.887774   0.000000   6.533592   # C_R
 164 1 5   0.000000  16.119787   0.000000   7.649589   # H_
 165 2 9   0.000000  17.932656   0.000066   5.808643   # N_3
 166 1 10   0.000000  18.727740   0.000000   3.528560   # O_1
 167 1 6   0.000000  17.520736   0.000000   3.179573   # C_2
 168 1 10   0.000000  17.171723  20.700400   1.972577   # O_1
 169 2 5   0.000000  12.250178  20.646891   5.258384   # H_
 170 2 7   0.000000  12.387307   1.092934   3.530171   # C_3
 171 2 5   0.000000  13.109797   1.261498   2.722716   # H_
 172 2 7   0.000000  12.254843   2.410989   4.322272   # C_3
 173 2 7   0.000000  11.058196   0.676044   2.866448   # C_3
 174 2 7   0.000000   9.831237   2.731172   3.669956   # C_3
 175 2 7   0.000000  10.833644   2.649057   4.822093   # C_3
 176 2 5   0.000000  12.527679   3.244187   3.660730   # H_
 177 2 5   0.000000  12.953947   2.454345   5.164066   # H_
 178 2 5   0.000000  10.544598   1.835508   5.498443   # H_
 179 2 5   0.000000  10.789503   3.572359   5.410898   # H_
 180 2 7   0.000000  10.225426   1.884282   2.459499   # C_3
 181 2 5   0.000000   9.323595   1.563115   1.926144   # H_
 182 2 5   0.000000  10.801492   2.498540   1.756000   # H_
 183 2 5   0.000000  11.272007   0.055359   1.987544   # H_
 184 2 5   0.000000   8.846791   2.418123   4.038426   # H_
 185 2 5   0.000000  10.464290   0.047535   3.543870   # H_
 186 2 5   0.000000   9.718680   3.773557   3.347935   # H_
 187 2 7   0.000000  18.796805  20.495381   6.972033   # C_3
 188 2 5   0.000000  18.600594   0.048773   5.014434   # H_
 189 2 7   0.000000  18.766497   0.968092   7.959565   # C_3
 190 2 5   0.000000  19.825394  20.465241   6.580637   # H_
 191 2 7   0.000000  18.570071  19.134541   7.647156   # C_3
 192 2 5   0.000000  17.544331  19.040124   8.018686   # H_
 193 2 7   0.000000  19.527483  18.929559   8.819388   # C_3
 194 2 5   0.000000  18.708920  18.327611   6.917076   # H_
 195 2 7   0.000000  19.456965  20.087707   9.810888   # C_3
 196 2 5   0.000000  20.552732  18.833305   8.441376   # H_
 197 2 5   0.000000  19.287080  17.990307   9.330356   # H_
 198 2 7   0.000000  19.719764   0.728860   9.130773   # C_3
 199 2 5   0.000000  20.190023  19.931016  10.610197   # H_
 200 2 5   0.000000  18.466963  20.104696  10.283083   # H_
 201 2 5   0.000000   0.054850   0.757024   8.769641   # H_
 202 2 5   0.000000  19.615302   1.539036   9.861203   # H_
 203 2 5   0.000000  17.761501   1.131206   8.360308   # H_
 204 2 5   0.000000  19.045947   1.895680   7.445223   # H_
 205 1 6   0.000000  13.529781  10.350200  17.520819   # C_2
 206 1 10   0.000000  13.878795  10.350200  18.727815   # O_1
 207 1 10   0.000000  12.322777  10.350200  17.171832   # O_1
 208 1 8   0.000000  14.593769  10.350200  16.456806   # C_R
 209 1 8   0.000000  14.166755  10.350200  15.162811   # C_R
 210 2 9   0.000000  12.816964  10.329585  14.733226   # N_3
 211 1 5   0.000000  14.930731  10.350200  13.051803   # H_
 212 1 8   0.000000  15.162743  10.350200  14.167800   # C_R
 213 1 8   0.000000  16.456748  10.350200  14.593785   # C_R
 214 1 8   0.000000  16.882763  10.350200  15.887781   # C_R
 215 1 8   0.000000  15.887774  10.350200  16.883792   # C_R
 216 1 5   0.000000  16.119787  10.350200  17.999789   # H_
 217 2 9   0.000000  17.932656  10.350266  16.158843   # N_3
 218 1 10   0.000000  18.727740  10.350200  13.878760   # O_1
 219 1 6   0.000000  17.520736  10.350200  13.529773   # C_2
 220 1 10   0.000000  17.171723  10.350200  12.322777   # O_1
 221 2 5   0.000000  12.250178  10.296691  15.608584   # H_
 222 2 7   0.000000  12.387307  11.443134  13.880371   # C_3
 223 2 5   0.000000  13.109797  11.611698  13.072916   # H_
 224 2 7   0.000000  12.254843  12.761189  14.672472   # C_3
 225 2 7   0.000000  11.058196  11.026244  13.216648   # C_3
 226 2 7   0.000000   9.831237  13.081372  14.020156   # C_3
 227 2 7   0.000000  10.833644  12.999257  15.172293   # C_3
 228 2 5   0.000000  12.527679  13.594387  14.010930   # H_
 229 2 5   0.000000  12.953947  12.804545  15.514266   # H_
 230 2 5   0.000000  10.544598  12.185708  15.848643   # H_
 231 2 5   0.000000  10.789503  13.922559  15.761098   # H_
 232 2 7   0.000000  10.225426  12.234482  12.809699   # C_3
 233 2 5   0.000000   9.323595  11.913315  12.276344   # H_
 234 2 5   0.000000  10.801492  12.848740  12.106200   # H_
 235 2 5   0.000000  11.272007  10.405559  12.337744   # H_
 236 2 5   0.000000   8.846791  12.768323  14.388626   # H_
 237 2 5   0.000000  10.464290  10.397735  13.894070   # H_
 238 2 5   0.000000   9.718680  14.123757  13.698135   # H_
 239 2 7   0.000000  18.796805  10.145181  17.322233   # C_3
 240 2 5   0.000000  18.600594  10.398973  15.364634   # H_
 241 2 7   0.000000  18.766497  11.318292  18.309765   # C_3
 242 2 5   0.000000  19.825394  10.115041  16.930837   # H_
 243 2 7   0.000000  18.570071   8.784341  17.997356   # C_3
 244 2 5   0.000000  17.544331   8.689924  18.368886   # H_
 245 2 7   0.000000  19.527483   8.579359  19.169588   # C_3
 246 2 5   0.000000  18.708920   7.977411  17.267276   # H_
 247 2 7   0.000000  19.456965   9.737507  20.161088   # C_3
 248 2 5   0.000000  20.552732   8.483105  18.791576   # H_
 249 2 5   0.000000  19.287080   7.640107  19.680556   # H_
 250 2 7   0.000000  19.719764  11.079060  19.480973   # C_3
 251 2 5   0.000000  20.190023   9.580816   0.259997   # H_
 252 2 5   0.000000  18.466963   9.754496  20.633283   # H_
 253 2 5   0.000000   0.054850  11.107224  19.119841   # H_
 254 2 5   0.000000  19.615302  11.889236  20.211403   # H_
 255 2 5   0.000000  17.761501  11.481406  18.710508   # H_
 256 2 5   0.000000  19.045947  12.245880  17.795423   # H_
 257 1 6   0.000000  17.520819   0.000000  17.520819   # C_2
 258 1 10   0.000000  17.171805   0.000000  18.727815   # O_1
 259 1 10   0.000000  18.727823   0.000000  17.171832   # O_1
 260 1 8   0.000000  16.456831   0.000000  16.456806   # C_R
 261 1 8   0.000000  16.883845   0.000000  15.162811   # C_R
 262 2 9   0.000000  18.233636   0.020615  14.733226   # N_3
 263 1 5   0.000000  16.119869   0.000000  13.051803   # H_
 264 1 8   0.000000  15.887857   0.000000  14.167800   # C_R
 265 1 8   0.000000  14.593852   0.000000  14.593785   # C_R
 266 1 8   0.000000  14.167837   0.000000  15.887781   # C_R
 267 1 8   0.000000  15.162826   0.000000  16.883792   # C_R
 268 1 5   0.000000  14.930813   0.000000  17.999789   # H_
 269 2 9   0.000000  13.117944  20.700334  16.158843   # N_3
 270 1 10   0.000000  12.322860   0.000000  13.878760   # O_1
 271 1 6   0.000000  13.529864   0.000000  13.529773   # C_2
 272 1 10   0.000000  13.878877   0.000000  12.322777   # O_1
 273 2 5   0.000000  18.800422   0.053509  15.608584   # H_
 274 2 7   0.000000  18.663293  19.607466  13.880371   # C_3
 275 2 5   0.000000  17.940803  19.438902  13.072916   # H_
 276 2 7   0.000000  18.795757  18.289411  14.672472   # C_3
 277 2 7   0.000000  19.992404  20.024356  13.216648   # C_3
 278 2 7   0.000000   0.518963  17.969228  14.020156   # C_3
 279 2 7   0.000000  20.216956  18.051343  15.172293   # C_3
 280 2 5   0.000000  18.522921  17.456213  14.010930   # H_
 281 2 5   0.000000  18.096653  18.246055  15.514266   # H_
 282 2 5   0.000000  20.506002  18.864892  15.848643   # H_
 283 2 5   0.000000  20.261097  17.128041  15.761098   # H_
 284 2 7   0.000000   0.124774  18.816118  12.809699   # C_3
 285 2 5   0.000000   1.026605  19.137285  12.276344   # H_
 286 2 5   0.000000  20.249108  18.201860  12.106200   # H_
 287 2 5   0.000000  19.778593  20.645041  12.337744   # H_
 288 2 5   0.000000   1.503409  18.282277  14.388626   # H_
 289 2 5   0.000000  20.586310  20.652865  13.894070   # H_
 290 2 5   0.000000   0.631520  16.926843  13.698135   # H_
 291 2 7   0.000000  12.253795   0.205019  17.322233   # C_3
 292 2 5   0.000000  12.450006  20.651627  15.364634   # H_
 293 2 7   0.000000  12.284103  19.732308  18.309765   # C_3
 294 2 5   0.000000  11.225206   0.235159  16.930837   # H_
 295 2 7   0.000000  12.480529   1.565859  17.997356   # C_3
 296 2 5   0.000000  13.506269   1.660276  18.368886   # H_
 297 2 7   0.000000  11.523117   1.770841  19.169588   # C_3
 298 2 5   0.000000  12.341680   2.372789  17.267276   # H_
 299 2 7   0.000000  11.593635   0.612693  20.161088   # C_3
 300 2 5   0.000000  10.497868   1.867095  18.791576   # H_
 301 2 5   0.000000  11.763520   2.710093  19.680556   # H_
 302 2 7   0.000000  11.330836  19.971540  19.480973   # C_3
 303 2 5   0.000000  10.860577   0.769384   0.259997   # H_
 304 2 5   0.000000  12.583637   0.595704  20.633283   # H_
 305 2 5   0.000000  10.295350  19.943376  19.119841   # H_
 306 2 5   0.000000  11.435298  19.161364  20.211403   # H_
 307 2 5   0.000000  13.289099  19.569194  18.710508   # H_
 308 2 5   0.000000  12.004653  18.804720  17.795423   # H_
 309 1 6   0.000000  17.520819  10.350200   7.170619   # C_2
 310 1 10   0.000000  17.171805  10.350200   8.377615   # O_1
 311 1 10   0.000000  18.727823  10.350200   6.821632   # O_1
 312 1 8   0.000000  16.456831  10.350200   6.106606   # C_R
 313 1 8   0.000000  16.883845  10.350200   4.812611   # C_R
 314 2 9   0.000000  18.233636  10.370815   4.383026   # N_3
 315 1 5   0.000000  16.119869  10.350200   2.701603   # H_
 316 1 8   0.000000  15.887857  10.350200   3.817600   # C_R
 317 1 8   0.000000  14.593852  10.350200   4.243585   # C_R
 318 1 8   0.000000  14.167837  10.350200   5.537581   # C_R
 319 1 8   0.000000  15.162826  10.350200   6.533592   # C_R
 320 1 5   0.000000  14.930813  10.350200   7.649589   # H_
 321 2 9   0.000000  13.117944  10.350134   5.808643   # N_3
 322 1 10   0.000000  12.322860  10.350200   3.528560   # O_1
 323 1 6   0.000000  13.529864  10.350200   3.179573   # C_2
 324 1 10   0.000000  13.878877  10.350200   1.972577   # O_1
 325 2 5   0.000000  18.800422  10.403709   5.258384   # H_
 326 2 7   0.000000  18.663293   9.257266   3.530171   # C_3
 327 2 5   0.000000  17.940803   9.088702   2.722716   # H_
 328 2 7   0.000000  18.795757   7.939211   4.322272   # C_3
 329 2 7   0.000000  19.992404   9.674156   2.866448   # C_3
 330 2 7   0.000000   0.518963   7.619028   3.669957   # C_3
 331 2 7   0.000000  20.216956   7.701143   4.822093   # C_3
 332 2 5   0.000000  18.522921   7.106013   3.660730   # H_
 333 2 5   0.000000  18.096653   7.895855   5.164066   # H_
 334 2 5   0.000000  20.506001   8.514692   5.498443   # H_
 335 2 5   0.000000  20.261096   6.777841   5.410898   # H_
 336 2 7   0.000000   0.124774   8.465918   2.459499   # C_3
 337 2 5   0.000000   1.026605   8.787085   1.926144   # H_
 338 2 5   0.000000  20.249108   7.851660   1.756001   # H_
 339 2 5   0.000000  19.778593  10.294841   1.987544   # H_
 340 2 5   0.000000   1.503409   7.932077   4.038426   # H_
 341 2 5   0.000000  20.586310  10.302665   3.543870   # H_
 342 2 5   0.000000   0.631520   6.576643   3.347935   # H_
 343 2 7   0.000000  12.253795  10.555219   6.972033   # C_3
 344 2 5   0.000000  12.450006  10.301427   5.014434   # H_
 345 2 7   0.000000  12.284103   9.382108   7.959565   # C_3
 346 2 5   0.000000  11.225206  10.585359   6.580637   # H_
 347 2 7   0.000000  12.480529  11.916059   7.647156   # C_3
 348 2 5   0.000000  13.506269  12.010476   8.018686   # H_
 349 2 7   0.000000  11.523117  12.121041   8.819388   # C_3
 350 2 5   0.000000  12.341680  12.722989   6.917076   # H_
 351 2 7   0.000000  11.593635  10.962893   9.810888   # C_3
 352 2 5   0.000000  10.497868  12.217295   8.441376   # H_
 353 2 5   0.000000  11.763520  13.060293   9.330356   # H_
 354 2 7   0.000000  11.330836   9.621340   9.130773   # C_3
 355 2 5   0.000000  10.860577  11.119584  10.610197   # H_
 356 2 5   0.000000  12.583637  10.945904  10.283083   # H_
 357 2 5   0.000000  10.295350   9.593176   8.769641   # H_
 358 2 5   0.000000  11.435298   8.811164   9.861203   # H_
 359 2 5   0.000000  13.289099   9.218994   8.360308   # H_
 360 2 5   0.000000  12.004653   8.454520   7.445223   # H_
 361 1 6   0.000000   7.170619   0.000000   7.170619   # C_2
 362 1 10   0.000000   6.821605   0.000000   8.377615   # O_1
 363 1 10   0.000000   8.377623   0.000000   6.821632   # O_1
 364 1 8   0.000000   6.106631   0.000000   6.106606   # C_R
 365 1 8   0.000000   6.533645   0.000000   4.812611   # C_R
 366 2 9   0.000000   7.883436   0.020615   4.383026   # N_3
 367 1 5   0.000000   5.769669   0.000000   2.701603   # H_
 368 1 8   0.000000   5.537657   0.000000   3.817600   # C_R
 369 1 8   0.000000   4.243652   0.000000   4.243585   # C_R
 370 1 8   0.000000   3.817637   0.000000   5.537581   # C_R
 371 1 8   0.000000   4.812626   0.000000   6.533592   # C_R
 372 1 5   0.000000   4.580613   0.000000   7.649589   # H_
 373 2 9   0.000000   2.767744  20.700334   5.808643   # N_3
 374 1 10   0.000000   1.972660   0.000000   3.528560   # O_1
 375 1 6   0.000000   3.179664   0.000000   3.179573   # C_2
 376 1 10   0.000000   3.528677   0.000000   1.972577   # O_1
 377 2 5   0.000000   8.450222   0.053509   5.258384   # H_
 378 2 7   0.000000   8.313093  19.607466   3.530171   # C_3
 379 2 5   0.000000   7.590603  19.438902   2.722716   # H_
 380 2 7   0.000000   8.445557  18.289411   4.322272   # C_3
 381 2 7   0.000000   9.642204  20.024356   2.866448   # C_3
 382 2 7   0.000000  10.869163  17.969228   3.669956   # C_3
 383 2 7   0.000000   9.866756  18.051343   4.822093   # C_3
 384 2 5   0.000000   8.172721  17.456213   3.660730   # H_
 385 2 5   0.000000   7.746453  18.246055   5.164066   # H_
 386 2 5   0.000000  10.155802  18.864892   5.498443   # H_
 387 2 5   0.000000   9.910897  17.128041   5.410898   # H_
 388 2 7   0.000000  10.474974  18.816118   2.459499   # C_3
 389 2 5   0.000000  11.376805  19.137285   1.926144   # H_
 390 2 5   0.000000   9.898908  18.201860   1.756000   # H_
 391 2 5   0.000000   9.428393  20.645041   1.987544   # H_
 392 2 5   0.000000  11.853609  18.282277   4.038426   # H_
 393 2 5   0.000000  10.236110  20.652865   3.543870   # H_
 394 2 5   0.000000  10.981720  16.926843   3.347935   # H_
 395 2 7   0.000000   1.903595   0.205019   6.972033   # C_3
 396 2 5   0.000000   2.099806  20.651627   5.014434   # H_
 397 2 7   0.000000   1.933903  19.732308   7.959565   # C_3
 398 2 5   0.000000   0.875006   0.235159   6.580637   # H_
 399 2 7   0.000000   2.130329   1.565859   7.647156   # C_3
 400 2 5   0.000000   3.156069   1.660276   8.018686   # H_
 401 2 7   0.000000   1.172917   1.770841   8.819388   # C_3
 402 2 5   0.000000   1.991480   2.372789   6.917076   # H_
 403 2 7   0.000000   1.243435   0.612693   9.810888   # C_3
 404 2 5   0.000000   0.147668   1.867095   8.441376   # H_
 405 2 5   0.000000   1.413320   2.710093   9.330356   # H_
 406 2 7   0.000000   0.980636  19.971540   9.130773   # C_3
 407 2 5   0.000000   0.510377   0.769384  10.610197   # H_
 408 2 5   0.000000   2.233437   0.595704  10.283083   # H_
 409 2 5   0.000000  20.645550  19.943376   8.769641   # H_
 410 2 5   0.000000   1.085098  19.161364   9.861203   # H_
 411 2 5   0.000000   2.938899  19.569194   8.360308   # H_
 412 2 5   0.000000   1.654453  18.804720   7.445223   # H_
 413 1 6   0.000000   7.170619  10.350200  17.520819   # C_2
 414 1 10   0.000000   6.821605  10.350200  18.727815   # O_1
 415 1 10   0.000000   8.377623  10.350200  17.171832   # O_1
 416 1 8   0.000000   6.106631  10.350200  16.456806   # C_R
 417 1 8   0.000000   6.533645  10.350200  15.162811   # C_R
 418 2 9   0.000000   7.883436  10.370815  14.733226   # N_3
 419 1 5   0.000000   5.769669  10.350200  13.051803   # H_
 420 1 8   0.000000   5.537657  10.350200  14.167800   # C_R
 421 1 8   0.000000   4.243652  10.350200  14.593785   # C_R
 422 1 8   0.000000   3.817637  10.350200  15.887781   # C_R
 423 1 8   0.000000   4.812626  10.350200  16.883792   # C_R
 424 1 5   0.000000   4.580613  10.350200  17.999789   # H_
 425 2 9   0.000000   2.767744  10.350134  16.158843   # N_3
 426 1 10   0.000000   1.972660  10.350200  13.878760   # O_1
 427 1 6   0.000000   3.179664  10.350200  13.529773   # C_2
 428 1 10   0.000000   3.528677  10.350200  12.322777   # O_1
 429 2 5   0.000000   8.450222  10.403709  15.608584   # H_
 430 2 7   0.000000   8.313093   9.257266  13.880371   # C_3
 431 2 5   0.000000   7.590603   9.088702  13.072916   # H_
 432 2 7   0.000000   8.445557   7.939211  14.672472   # C_3
 433 2 7   0.000000   9.642204   9.674156  13.216648   # C_3
 434 2 7   0.000000  10.869163   7.619028  14.020156   # C_3
 435 2 7   0.000000   9.866756   7.701143  15.172293   # C_3
 436 2 5   0.000000   8.172721   7.106013  14.010930   # H_
 437 2 5   0.000000   7.746453   7.895855  15.514266   # H_
 438 2 5   0.000000  10.155802   8.514692  15.848643   # H_
 439 2 5   0.000000   9.910897   6.777841  15.761098   # H_
 440 2 7   0.000000  10.474974   8.465918  12.809699   # C_3
 441 2 5   0.000000  11.376805   8.787085  12.276344   # H_
 442 2 5   0.000000   9.898908   7.851660  12.106200   # H_
 443 2 5   0.000000   9.428393  10.294841  12.337744   # H_
 444 2 5   0.000000  11.853609   7.932077  14.388626   # H_
 445 2 5   0.000000  10.236110  10.302665  13.894070   # H_
 446 2 5   0.000000  10.981720   6.576643  13.698135   # H_
 447 2 7   0.000000   1.903595  10.555219  17.322233   # C_3
 448 2 5   0.000000   2.099806  10.301427  15.364634   # H_
 449 2 7   0.000000   1.933903   9.382108  18.309765   # C_3
 450 2 5   0.000000   0.875006  10.585359  16.930837   # H_
 451 2 7   0.000000   2.130329  11.916059  17.997356   # C_3
 452 2 5   0.000000   3.156069  12.010476  18.368886   # H_
 453 2 7   0.000000   1.172917  12.121041  19.169588   # C_3
 454 2 5   0.000000   1.991480  12.722989  17.267276   # H_
 455 2 7   0.000000   1.243435  10.962893  20.161088   # C_3
 456 2 5   0.000000   0.147668  12.217295  18.791576   # H_
 457 2 5   0.000000   1.413320  13.060293  19.680556   # H_
 458 2 7   0.000000   0.980636   9.621340  19.480973   # C_3