 (written by mofun)

1400 atoms
816 bonds
1680 angles
2832 dihedrals
0 impropers

10 atom types
5 bond types
9 angle types
13 dihedral types
   0.000000  26.896000 xlo xhi
   0.000000  26.896000 ylo yhi
   0.000000  26.896000 zlo zhi

Masses

 1 91.2240   # Zr3+4
 2 15.9994   # O_3
 3 12.0107   # C_3
 4 1.0079   # H_
 5 1.0079   # H_
 6 12.0107   # C_2
 7 12.0107   # C_3
 8 12.0107   # C_R
 9 14.0067   # N_3
 10 15.9994   # O_1

Pair Coeffs

 1   0.069000   2.783168 # Zr3+4
 2   0.060000   3.118146 # O_3
 3   0.105000   3.430851 # C_3
 4   0.044000   2.571134 # H_
 5 0.044000 2.571134   # H_
 6 0.105000 3.430851   # C_2
 7 0.105000 3.430851   # C_3
 8 0.105000 3.430851   # C_R
 9 0.069000 3.260689   # N_3
 10 0.060000 3.118146   # O_1

Bond Coeffs

 1 560.312976 1.423192   # C_R N_3
 2 528.634538 1.451071   # C_3 N_3
 3 331.069389 1.109401   # C_3 H_
 4 349.795899 1.514000   # C_3 C_3
 5 527.945261 1.044419   # H_ N_3

Angle Coeffs

 1 cosine/periodic  282.369526  -1  3   # C_R C_R N_3
 2 fourier  268.482172  0.317506  0.313225  0.272502   # C_3 N_3 C_R
 3 fourier  150.574599  0.317506  0.313225  0.272502   # C_R N_3 H_
 4 fourier  144.695053  0.317506  0.313225  0.272502   # C_3 N_3 H_
 5 fourier  169.780468  0.343737  0.374972  0.281246   # H_ C_3 N_3
 6 fourier  303.297032  0.343737  0.374972  0.281246   # C_3 C_3 N_3
 7 fourier  117.318683  0.343737  0.374972  0.281246   # C_3 C_3 H_
 8 fourier  214.211821  0.343737  0.374972  0.281246   # C_3 C_3 C_3
 9 fourier  75.498766  0.343737  0.374972  0.281246   # H_ C_3 H_

Dihedral Coeffs

 1 harmonic 3.368555 -1 2   # C_R C_R C_R N_3 M=4
 2 harmonic 3.368555 -1 2   # H_ C_R C_R N_3 M=4
 3 harmonic 0.125000 -1 6   # C_3 N_3 C_R C_R M=4
 4 harmonic 0.125000 -1 6   # C_R C_R N_3 H_ M=4
 5 harmonic 0.081375 1 3   # C_3 C_3 N_3 C_R M=6
 6 harmonic 0.081375 1 3   # C_R N_3 C_3 H_ M=6
 7 harmonic 0.081375 1 3   # C_3 C_3 N_3 H_ M=6
 8 harmonic 0.081375 1 3   # H_ C_3 N_3 H_ M=6
 9 harmonic 0.117722 1 3   # C_3 C_3 C_3 N_3 M=9
 10 harmonic 0.117722 1 3   # H_ C_3 C_3 N_3 M=9
 11 harmonic 0.117722 1 3   # C_3 C_3 C_3 H_ M=9
 12 harmonic 0.117722 1 3   # H_ C_3 C_3 H_ M=9
 13 harmonic 0.117722 1 3   # C_3 C_3 C_3 C_3 M=9

Atoms

 1 1 1   0.000000   2.475508   0.000000   0.000000   # Zr3+4
 2 1 1   0.000000  24.420492   0.000000   0.000000   # Zr3+4
 3 1 1   0.000000   0.000000   2.475508   0.000000   # Zr3+4
 4 1 1   0.000000   0.000000  24.420492   0.000000   # Zr3+4
 5 1 1   0.000000   0.000000   0.000000   2.475508   # Zr3+4
 6 1 1   0.000000   0.000000   0.000000  24.420492   # Zr3+4
 7 1 1   0.000000   2.475508  13.448000  13.448000   # Zr3+4
 8 1 1   0.000000  24.420492  13.448000  13.448000   # Zr3+4
 9 1 1   0.000000   0.000000  15.923508  13.448000   # Zr3+4
 10 1 1   0.000000   0.000000  10.972492  13.448000   # Zr3+4
 11 1 1   0.000000   0.000000  13.448000  15.923508   # Zr3+4
 12 1 1   0.000000   0.000000  13.448000  10.972492   # Zr3+4
 13 1 1   0.000000  15.923508   0.000000  13.448000   # Zr3+4
 14 1 1   0.000000  10.972492   0.000000  13.448000   # Zr3+4
 15 1 1   0.000000  13.448000   2.475508  13.448000   # Zr3+4
 16 1 1   0.000000  13.448000  24.420492  13.448000   # Zr3+4
 17 1 1   0.000000  13.448000   0.000000  15.923508   # Zr3+4
 18 1 1   0.000000  13.448000   0.000000  10.972492   # Zr3+4
 19 1 1   0.000000  15.923508  13.448000   0.000000   # Zr3+4
 20 1 1   0.000000  10.972492  13.448000   0.000000   # Zr3+4
 21 1 1   0.000000  13.448000  15.923508   0.000000   # Zr3+4
 22 1 1   0.000000  13.448000  10.972492   0.000000   # Zr3+4
 23 1 1   0.000000  13.448000  13.448000   2.475508   # Zr3+4
 24 1 1   0.000000  13.448000  13.448000  24.420492   # Zr3+4
 25 1 2   0.000000   1.221078   1.221078   1.221078   # O_3
 26 1 2   0.000000  25.674922  25.674922   1.221078   # O_3
 27 1 2   0.000000  25.674922   1.221078  25.674922   # O_3
 28 1 2   0.000000   1.221078  25.674922  25.674922   # O_3
 29 1 2   0.000000   1.221078   1.221078  25.674922   # O_3
 30 1 2   0.000000  25.674922  25.674922  25.674922   # O_3
 31 1 2   0.000000   1.221078  25.674922   1.221078   # O_3
 32 1 2   0.000000  25.674922   1.221078   1.221078   # O_3
 33 1 2   0.000000   1.221078  14.669078  14.669078   # O_3
 34 1 2   0.000000  25.674922  12.226922  14.669078   # O_3
 35 1 2   0.000000  25.674922  14.669078  12.226922   # O_3
 36 1 2   0.000000   1.221078  12.226922  12.226922   # O_3
 37 1 2   0.000000   1.221078  14.669078  12.226922   # O_3
 38 1 2   0.000000  25.674922  12.226922  12.226922   # O_3
 39 1 2   0.000000   1.221078  12.226922  14.669078   # O_3
 40 1 2   0.000000  25.674922  14.669078  14.669078   # O_3
 41 1 2   0.000000  14.669078   1.221078  14.669078   # O_3
 42 1 2   0.000000  12.226922  25.674922  14.669078   # O_3
 43 1 2   0.000000  12.226922   1.221078  12.226922   # O_3
 44 1 2   0.000000  14.669078  25.674922  12.226922   # O_3
 45 1 2   0.000000  14.669078   1.221078  12.226922   # O_3
 46 1 2   0.000000  12.226922  25.674922  12.226922   # O_3
 47 1 2   0.000000  14.669078  25.674922  14.669078   # O_3
 48 1 2   0.000000  12.226922   1.221078  14.669078   # O_3
 49 1 2   0.000000  14.669078  14.669078   1.221078   # O_3
 50 1 2   0.000000  12.226922  12.226922   1.221078   # O_3
 51 1 2   0.000000  12.226922  14.669078  25.674922   # O_3
 52 1 2   0.000000  14.669078  12.226922  25.674922   # O_3
 53 1 2   0.000000  14.669078  14.669078  25.674922   # O_3
 54 1 2   0.000000  12.226922  12.226922  25.674922   # O_3
 55 1 2   0.000000  14.669078  12.226922   1.221078   # O_3
 56 1 2   0.000000  12.226922  14.669078   1.221078   # O_3
 57 1 10   0.000000   3.566410   0.000000   1.933822   # O_1
 58 1 6   0.000000   3.152211   0.000000   3.152223   # C_2
 59 1 10   0.000000   1.933811  26.896000   3.566424   # O_1
 60 1 8   0.000000   4.209211   0.000000   4.209222   # C_R
 61 1 8   0.000000   5.535211   0.000000   3.891921   # C_R
 62 1 8   0.000000   3.891912   0.000000   5.535222   # C_R
 63 1 8   0.000000   6.508812   0.000000   4.827820   # C_R
 64 1 5   0.000000   5.780010  26.896000   2.996221   # H_
 65 1 8   0.000000   4.827813  26.896000   6.508821   # C_R
 66 1 5   0.000000   2.996212  26.896000   5.780023   # H_
 67 1 8   0.000000   6.204913   0.000000   6.204920   # C_R
 68 1 8   0.000000   7.243114  26.896000   7.243120   # C_R
 69 1 5   0.000000   7.399112   0.000000   4.558920   # H_
 70 1 8   0.000000   8.620213   0.000000   6.939219   # C_R
 71 2 9   0.000000   4.316665  26.673779   7.824484   # N_3
 72 1 8   0.000000   6.939215   0.000000   8.620220   # C_R
 73 1 8   0.000000   9.556114   0.000000   7.912818   # C_R
 74 2 9   0.000000   9.137935   0.176462   5.620171   # N_3
 75 1 8   0.000000   7.912815   0.000000   9.556119   # C_R
 76 1 5   0.000000   6.048915   0.000000   8.889121   # H_
 77 1 8   0.000000   9.238815  26.896000   9.238818   # C_R
 78 1 6   0.000000  10.295816  26.896000  10.295817   # C_2
 79 1 5   0.000000  10.451814   0.000000   7.668017   # H_
 80 1 5   0.000000   7.668016   0.000000  10.451819   # H_
 81 1 10   0.000000  11.514216   0.000000   9.881616   # O_1
 82 1 10   0.000000   9.881617   0.000000  11.514218   # O_1
 83 2 7   0.000000  11.702900   0.810316   3.706715   # C_3
 84 2 7   0.000000  10.337348  26.323404   5.215974   # C_3
 85 2 7   0.000000   2.280842   2.515689   9.291899   # C_3
 86 2 7   0.000000   3.116536   0.483982   8.269572   # C_3
 87 2 5   0.000000  10.498213  25.447848   5.856158   # H_
 88 2 7   0.000000  11.571842   0.336599   5.157172   # C_3
 89 2 7   0.000000  10.173310  25.858970   3.766505   # C_3
 90 2 7   0.000000  10.540128   0.188834   2.946083   # C_3
 91 2 5   0.000000  10.807759  26.830755   1.916222   # H_
 92 2 5   0.000000   9.697251   0.889067   2.910256   # H_
 93 2 5   0.000000   9.167191  25.496080   3.535777   # H_
 94 2 5   0.000000  10.882371  25.049251   3.553693   # H_
 95 2 7   0.000000   2.879162   0.207350   9.754727   # C_3
 96 2 5   0.000000   3.816229   0.267660  10.323101   # H_
 97 2 5   0.000000   2.450170  26.111596   9.930043   # H_
 98 2 7   0.000000   1.938864   1.324153  10.184365   # C_3
 99 2 5   0.000000   1.374533   2.892686   8.804839   # H_
 100 2 7   0.000000   3.279795   2.002968   8.256974   # C_3
 101 2 5   0.000000   2.046466   1.560974  11.247310   # H_
 102 2 5   0.000000   0.897579   1.024600  10.016528   # H_
 103 2 5   0.000000  12.466534  26.658037   5.426036   # H_
 104 2 5   0.000000  11.516386   1.186716   5.845214   # H_
 105 2 5   0.000000  11.687626   1.902354   3.632815   # H_
 106 2 5   0.000000   4.296214   2.292142   8.553556   # H_
 107 2 5   0.000000   3.094157   2.435505   7.268639   # H_
 108 2 5   0.000000   2.221038   0.176006   7.715975   # H_
 109 2 5   0.000000   4.211345  25.662833   7.917891   # H_
 110 2 5   0.000000   9.221581   1.180469   5.462572   # H_
 111 2 5   0.000000  12.657374   0.467325   3.290636   # H_
 112 2 5   0.000000   2.708918   3.341322   9.869962   # H_
 113 1 10   0.000000  23.329590   0.000000   1.933822   # O_1
 114 1 6   0.000000  23.743789   0.000000   3.152223   # C_2
 115 1 10   0.000000  24.962189   0.000000   3.566424   # O_1
 116 1 8   0.000000  22.686789   0.000000   4.209222   # C_R
 117 1 8   0.000000  21.360789  26.896000   3.891921   # C_R
 118 1 8   0.000000  23.004088   0.000000   5.535222   # C_R
 119 1 8   0.000000  20.387188  26.896000   4.827820   # C_R
 120 1 5   0.000000  21.115990  26.896000   2.996221   # H_
 121 1 8   0.000000  22.068187   0.000000   6.508821   # C_R
 122 1 5   0.000000  23.899788   0.000000   5.780023   # H_
 123 1 8   0.000000  20.691087   0.000000   6.204920   # C_R
 124 1 8   0.000000  19.652886  26.896000   7.243120   # C_R
 125 1 5   0.000000  19.496888  26.896000   4.558920   # H_
 126 1 8   0.000000  18.275787  26.896000   6.939219   # C_R
 127 2 9   0.000000  22.579335   0.222221   7.824484   # N_3
 128 1 8   0.000000  19.956785   0.000000   8.620220   # C_R
 129 1 8   0.000000  17.339886  26.896000   7.912818   # C_R
 130 2 9   0.000000  17.758065  26.719538   5.620171   # N_3
 131 1 8   0.000000  18.983185   0.000000   9.556119   # C_R
 132 1 5   0.000000  20.847085   0.000000   8.889121   # H_
 133 1 8   0.000000  17.657185  26.896000   9.238818   # C_R
 134 1 6   0.000000  16.600184  26.896000  10.295817   # C_2
 135 1 5   0.000000  16.444186  26.896000   7.668017   # H_
 136 1 5   0.000000  19.227984   0.000000  10.451819   # H_
 137 1 10   0.000000  15.381784  26.896000   9.881616   # O_1
 138 1 10   0.000000  17.014383  26.896000  11.514218   # O_1
 139 2 7   0.000000  15.193100  26.085684   3.706715   # C_3
 140 2 7   0.000000  16.558652   0.572596   5.215974   # C_3
 141 2 7   0.000000  24.615158  24.380311   9.291899   # C_3
 142 2 7   0.000000  23.779464  26.412018   8.269572   # C_3
 143 2 5   0.000000  16.397787   1.448152   5.856158   # H_
 144 2 7   0.000000  15.324158  26.559401   5.157172   # C_3
 145 2 7   0.000000  16.722690   1.037030   3.766505   # C_3
 146 2 7   0.000000  16.355872  26.707166   2.946083   # C_3
 147 2 5   0.000000  16.088241   0.065245   1.916222   # H_
 148 2 5   0.000000  17.198749  26.006933   2.910256   # H_
 149 2 5   0.000000  17.728809   1.399920   3.535777   # H_
 150 2 5   0.000000  16.013629   1.846749   3.553693   # H_
 151 2 7   0.000000  24.016838  26.688650   9.754727   # C_3
 152 2 5   0.000000  23.079771  26.628340  10.323101   # H_
 153 2 5   0.000000  24.445830   0.784404   9.930043   # H_
 154 2 7   0.000000  24.957136  25.571847  10.184365   # C_3
 155 2 5   0.000000  25.521467  24.003314   8.804839   # H_
 156 2 7   0.000000  23.616205  24.893032   8.256974   # C_3
 157 2 5   0.000000  24.849534  25.335026  11.247310   # H_
 158 2 5   0.000000  25.998421  25.871400  10.016528   # H_
 159 2 5   0.000000  14.429466   0.237963   5.426036   # H_
 160 2 5   0.000000  15.379614  25.709284   5.845214   # H_
 161 2 5   0.000000  15.208374  24.993646   3.632815   # H_
 162 2 5   0.000000  22.599786  24.603858   8.553556   # H_
 163 2 5   0.000000  23.801843  24.460495   7.268639   # H_
 164 2 5   0.000000  24.674962  26.719994   7.715975   # H_
 165 2 5   0.000000  22.684655   1.233167   7.917891   # H_
 166 2 5   0.000000  17.674419  25.715531   5.462572   # H_
 167 2 5   0.000000  14.238626  26.428675   3.290636   # H_
 168 2 5   0.000000  24.187082  23.554678   9.869962   # H_
 169 1 10   0.000000  23.329590   0.000000  24.962178   # O_1
 170 1 6   0.000000  23.743789   0.000000  23.743777   # C_2
 171 1 10   0.000000  24.962189   0.000000  23.329576   # O_1
 172 1 8   0.000000  22.686789   0.000000  22.686778   # C_R
 173 1 8   0.000000  21.360789  26.896000  23.004079   # C_R
 174 1 8   0.000000  23.004088   0.000000  21.360778   # C_R
 175 1 8   0.000000  20.387188  26.896000  22.068180   # C_R
 176 1 5   0.000000  21.115990  26.896000  23.899779   # H_
 177 1 8   0.000000  22.068187   0.000000  20.387179   # C_R
 178 1 5   0.000000  23.899788   0.000000  21.115977   # H_
 179 1 8   0.000000  20.691087   0.000000  20.691080   # C_R
 180 1 8   0.000000  19.652886  26.896000  19.652880   # C_R
 181 1 5   0.000000  19.496888  26.896000  22.337080   # H_
 182 1 8   0.000000  18.275787  26.896000  19.956781   # C_R
 183 2 9   0.000000  22.579335  26.673779  19.071516   # N_3
 184 1 8   0.000000  19.956785   0.000000  18.275780   # C_R
 185 1 8   0.000000  17.339886  26.896000  18.983182   # C_R
 186 2 9   0.000000  17.758065   0.176462  21.275829   # N_3
 187 1 8   0.000000  18.983185   0.000000  17.339881   # C_R
 188 1 5   0.000000  20.847085   0.000000  18.006879   # H_
 189 1 8   0.000000  17.657185  26.896000  17.657182   # C_R
 190 1 6   0.000000  16.600184  26.896000  16.600183   # C_2
 191 1 5   0.000000  16.444186  26.896000  19.227983   # H_
 192 1 5   0.000000  19.227984   0.000000  16.444181   # H_
 193 1 10   0.000000  15.381784  26.896000  17.014384   # O_1
 194 1 10   0.000000  17.014383  26.896000  15.381782   # O_1
 195 2 7   0.000000  15.193100   0.810316  23.189285   # C_3
 196 2 7   0.000000  16.558652  26.323404  21.680026   # C_3
 197 2 7   0.000000  24.615158   2.515689  17.604101   # C_3
 198 2 7   0.000000  23.779464   0.483982  18.626428   # C_3
 199 2 5   0.000000  16.397787  25.447848  21.039842   # H_
 200 2 7   0.000000  15.324158   0.336599  21.738828   # C_3
 201 2 7   0.000000  16.722690  25.858970  23.129495   # C_3
 202 2 7   0.000000  16.355872   0.188834  23.949917   # C_3
 203 2 5   0.000000  16.088241  26.830755  24.979778   # H_
 204 2 5   0.000000  17.198749   0.889067  23.985744   # H_
 205 2 5   0.000000  17.728809  25.496080  23.360223   # H_
 206 2 5   0.000000  16.013629  25.049251  23.342307   # H_
 207 2 7   0.000000  24.016838   0.207350  17.141273   # C_3
 208 2 5   0.000000  23.079771   0.267660  16.572899   # H_
 209 2 5   0.000000  24.445830  26.111596  16.965957   # H_
 210 2 7   0.000000  24.957136   1.324153  16.711635   # C_3
 211 2 5   0.000000  25.521467   2.892686  18.091161   # H_
 212 2 7   0.000000  23.616205   2.002968  18.639026   # C_3
 213 2 5   0.000000  24.849534   1.560974  15.648690   # H_
 214 2 5   0.000000  25.998421   1.024600  16.879472   # H_
 215 2 5   0.000000  14.429466  26.658037  21.469964   # H_
 216 2 5   0.000000  15.379614   1.186716  21.050786   # H_
 217 2 5   0.000000  15.208374   1.902354  23.263185   # H_
 218 2 5   0.000000  22.599786   2.292142  18.342444   # H_
 219 2 5   0.000000  23.801843   2.435505  19.627361   # H_
 220 2 5   0.000000  24.674962   0.176006  19.180025   # H_
 221 2 5   0.000000  22.684655  25.662833  18.978109   # H_
 222 2 5   0.000000  17.674419   1.180469  21.433428   # H_
 223 2 5   0.000000  14.238626   0.467325  23.605364   # H_
 224 2 5   0.000000  24.187082   3.341322  17.026038   # H_
 225 1 10   0.000000   3.566410   0.000000  24.962178   # O_1
 226 1 6   0.000000   3.152211   0.000000  23.743777   # C_2
 227 1 10   0.000000   1.933811   0.000000  23.329576   # O_1
 228 1 8   0.000000   4.209211   0.000000  22.686778   # C_R
 229 1 8   0.000000   5.535211   0.000000  23.004079   # C_R
 230 1 8   0.000000   3.891912   0.000000  21.360778   # C_R
 231 1 8   0.000000   6.508812   0.000000  22.068180   # C_R
 232 1 5   0.000000   5.780010   0.000000  23.899779   # H_
 233 1 8   0.000000   4.827813   0.000000  20.387179   # C_R
 234 1 5   0.000000   2.996212   0.000000  21.115977   # H_
 235 1 8   0.000000   6.204913   0.000000  20.691080   # C_R
 236 1 8   0.000000   7.243114   0.000000  19.652880   # C_R
 237 1 5   0.000000   7.399112   0.000000  22.337080   # H_
 238 1 8   0.000000   8.620213   0.000000  19.956781   # C_R
 239 2 9   0.000000   4.316665   0.222221  19.071516   # N_3
 240 1 8   0.000000   6.939215   0.000000  18.275780   # C_R
 241 1 8   0.000000   9.556114   0.000000  18.983182   # C_R
 242 2 9   0.000000   9.137935  26.719538  21.275829   # N_3
 243 1 8   0.000000   7.912815   0.000000  17.339881   # C_R
 244 1 5   0.000000   6.048915   0.000000  18.006879   # H_
 245 1 8   0.000000   9.238815   0.000000  17.657182   # C_R
 246 1 6   0.000000  10.295816   0.000000  16.600183   # C_2
 247 1 5   0.000000  10.451814   0.000000  19.227983   # H_
 248 1 5   0.000000   7.668016   0.000000  16.444181   # H_
 249 1 10   0.000000  11.514216   0.000000  17.014384   # O_1
 250 1 10   0.000000   9.881617   0.000000  15.381782   # O_1
 251 2 7   0.000000  11.702900  26.085684  23.189285   # C_3
 252 2 7   0.000000  10.337348   0.572596  21.680026   # C_3
 253 2 7   0.000000   2.280842  24.380311  17.604101   # C_3
 254 2 7   0.000000   3.116536  26.412018  18.626428   # C_3
 255 2 5   0.000000  10.498213   1.448152  21.039842   # H_
 256 2 7   0.000000  11.571842  26.559401  21.738828   # C_3
 257 2 7   0.000000  10.173310   1.037030  23.129495   # C_3
 258 2 7   0.000000  10.540128  26.707166  23.949917   # C_3
 259 2 5   0.000000  10.807759   0.065245  24.979778   # H_
 260 2 5   0.000000   9.697251  26.006933  23.985744   # H_
 261 2 5   0.000000   9.167191   1.399920  23.360223   # H_
 262 2 5   0.000000  10.882371   1.846749  23.342307   # H_
 263 2 7   0.000000   2.879162  26.688650  17.141273   # C_3
 264 2 5   0.000000   3.816229  26.628340  16.572899   # H_
 265 2 5   0.000000   2.450170   0.784404  16.965957   # H_
 266 2 7   0.000000   1.938864  25.571847  16.711635   # C_3
 267 2 5   0.000000   1.374533  24.003314  18.091161   # H_
 268 2 7   0.000000   3.279795  24.893032  18.639026   # C_3
 269 2 5   0.000000   2.046466  25.335026  15.648690   # H_
 270 2 5   0.000000   0.897579  25.871400  16.879472   # H_
 271 2 5   0.000000  12.466534   0.237963  21.469964   # H_
 272 2 5   0.000000  11.516386  25.709284  21.050786   # H_
 273 2 5   0.000000  11.687626  24.993646  23.263185   # H_
 274 2 5   0.000000   4.296214  24.603858  18.342444   # H_
 275 2 5   0.000000   3.094157  24.460495  19.627361   # H_
 276 2 5   0.000000   2.221038  26.719994  19.180025   # H_
 277 2 5   0.000000   4.211345   1.233167  18.978109   # H_
 278 2 5   0.000000   9.221581  25.715531  21.433428   # H_
 279 2 5   0.000000  12.657374  26.428675  23.605364   # H_
 280 2 5   0.000000   2.708918  23.554678  17.026038   # H_
 281 1 10   0.000000   1.933822   3.566410   0.000000   # O_1
 282 1 6   0.000000   3.152223   3.152211   0.000000   # C_2
 283 1 10   0.000000   3.566424   1.933811   0.000000   # O_1
 284 1 8   0.000000   4.209222   4.209211   0.000000   # C_R
 285 1 8   0.000000   3.891921   5.535211  26.896000   # C_R
 286 1 8   0.000000   5.535222   3.891912   0.000000   # C_R
 287 1 8   0.000000   4.827820   6.508812  26.896000   # C_R
 288 1 5   0.000000   2.996221   5.780010  26.896000   # H_
 289 1 8   0.000000   6.508821   4.827813   0.000000   # C_R
 290 1 5   0.000000   5.780023   2.996212   0.000000   # H_
 291 1 8   0.000000   6.204920   6.204913   0.000000   # C_R
 292 1 8   0.000000   7.243120   7.243114  26.896000   # C_R
 293 1 5   0.000000   4.558920   7.399112  26.896000   # H_
 294 1 8   0.000000   6.939219   8.620213  26.896000   # C_R
 295 2 9   0.000000   7.824484   4.316665  26.673779   # N_3
 296 1 8   0.000000   8.620220   6.939215   0.000000   # C_R
 297 1 8   0.000000   7.912818   9.556114  26.896000   # C_R
 298 2 9   0.000000   5.620171   9.137935   0.176462   # N_3
 299 1 8   0.000000   9.556119   7.912815   0.000000   # C_R
 300 1 5   0.000000   8.889121   6.048915   0.000000   # H_
 301 1 8   0.000000   9.238818   9.238815  26.896000   # C_R
 302 1 6   0.000000  10.295817  10.295816  26.896000   # C_2
 303 1 5   0.000000   7.668017  10.451814  26.896000   # H_
 304 1 5   0.000000  10.451819   7.668016   0.000000   # H_
 305 1 10   0.000000   9.881616  11.514216  26.896000   # O_1
 306 1 10   0.000000  11.514218   9.881617  26.896000   # O_1
 307 2 7   0.000000   3.706715  11.702900   0.810316   # C_3
 308 2 7   0.000000   5.215974  10.337348  26.323404   # C_3
 309 2 7   0.000000   9.291899   2.280842   2.515689   # C_3
 310 2 7   0.000000   8.269572   3.116536   0.483982   # C_3
 311 2 5   0.000000   5.856158  10.498213  25.447848   # H_
 312 2 7   0.000000   5.157172  11.571842   0.336599   # C_3
 313 2 7   0.000000   3.766505  10.173310  25.858970   # C_3
 314 2 7   0.000000   2.946083  10.540128   0.188834   # C_3
 315 2 5   0.000000   1.916222  10.807759  26.830755   # H_
 316 2 5   0.000000   2.910256   9.697251   0.889067   # H_
 317 2 5   0.000000   3.535777   9.167191  25.496080   # H_
 318 2 5   0.000000   3.553693  10.882371  25.049251   # H_
 319 2 7   0.000000   9.754727   2.879162   0.207350   # C_3
 320 2 5   0.000000  10.323101   3.816229   0.267660   # H_
 321 2 5   0.000000   9.930043   2.450170  26.111596   # H_
 322 2 7   0.000000  10.184365   1.938864   1.324153   # C_3
 323 2 5   0.000000   8.804839   1.374533   2.892686   # H_
 324 2 7   0.000000   8.256974   3.279795   2.002968   # C_3
 325 2 5   0.000000  11.247310   2.046466   1.560974   # H_
 326 2 5   0.000000  10.016528   0.897579   1.024600   # H_
 327 2 5   0.000000   5.426036  12.466534  26.658037   # H_
 328 2 5   0.000000   5.845214  11.516386   1.186716   # H_
 329 2 5   0.000000   3.632815  11.687626   1.902354   # H_
 330 2 5   0.000000   8.553556   4.296214   2.292142   # H_
 331 2 5   0.000000   7.268639   3.094157   2.435505   # H_
 332 2 5   0.000000   7.715975   2.221038   0.176006   # H_
 333 2 5   0.000000   7.917891   4.211345  25.662833   # H_
 334 2 5   0.000000   5.462572   9.221581   1.180469   # H_
 335 2 5   0.000000   3.290636  12.657374   0.467325   # H_
 336 2 5   0.000000   9.869962   2.708918   3.341322   # H_
 337 1 10   0.000000   1.933822  23.329590   0.000000   # O_1
 338 1 6   0.000000   3.152223  23.743789   0.000000   # C_2
 339 1 10   0.000000   3.566424  24.962189   0.000000   # O_1
 340 1 8   0.000000   4.209222  22.686789   0.000000   # C_R
 341 1 8   0.000000   3.891921  21.360789   0.000000   # C_R
 342 1 8   0.000000   5.535222  23.004088   0.000000   # C_R
 343 1 8   0.000000   4.827820  20.387188   0.000000   # C_R
 344 1 5   0.000000   2.996221  21.115990   0.000000   # H_
 345 1 8   0.000000   6.508821  22.068187   0.000000   # C_R
 346 1 5   0.000000   5.780023  23.899788   0.000000   # H_
 347 1 8   0.000000   6.204920  20.691087   0.000000   # C_R
 348 1 8   0.000000   7.243120  19.652886   0.000000   # C_R
 349 1 5   0.000000   4.558920  19.496888   0.000000   # H_
 350 1 8   0.000000   6.939219  18.275787   0.000000   # C_R
 351 2 9   0.000000   7.824484  22.579335   0.222221   # N_3
 352 1 8   0.000000   8.620220  19.956785   0.000000   # C_R
 353 1 8   0.000000   7.912818  17.339886   0.000000   # C_R
 354 2 9   0.000000   5.620171  17.758065  26.719538   # N_3
 355 1 8   0.000000   9.556119  18.983185   0.000000   # C_R
 356 1 5   0.000000   8.889121  20.847085   0.000000   # H_
 357 1 8   0.000000   9.238818  17.657185   0.000000   # C_R
 358 1 6   0.000000  10.295817  16.600184   0.000000   # C_2
 359 1 5   0.000000   7.668017  16.444186   0.000000   # H_
 360 1 5   0.000000  10.451819  19.227984   0.000000   # H_
 361 1 10   0.000000   9.881616  15.381784   0.000000   # O_1
 362 1 10   0.000000  11.514218  17.014383   0.000000   # O_1
 363 2 7   0.000000   3.706715  15.193100  26.085684   # C_3
 364 2 7   0.000000   5.215974  16.558652   0.572596   # C_3
 365 2 7   0.000000   9.291899  24.615158  24.380311   # C_3
 366 2 7   0.000000   8.269572  23.779464  26.412018   # C_3
 367 2 5   0.000000   5.856158  16.397787   1.448152   # H_
 368 2 7   0.000000   5.157172  15.324158  26.559401   # C_3
 369 2 7   0.000000   3.766505  16.722690   1.037030   # C_3
 370 2 7   0.000000   2.946083  16.355872  26.707166   # C_3
 371 2 5   0.000000   1.916222  16.088241   0.065245   # H_
 372 2 5   0.000000   2.910256  17.198749  26.006933   # H_
 373 2 5   0.000000   3.535777  17.728809   1.399920   # H_
 374 2 5   0.000000   3.553693  16.013629   1.846749   # H_
 375 2 7   0.000000   9.754727  24.016838  26.688650   # C_3
 376 2 5   0.000000  10.323101  23.079771  26.628340   # H_
 377 2 5   0.000000   9.930043  24.445830   0.784404   # H_
 378 2 7   0.000000  10.184365  24.957136  25.571847   # C_3
 379 2 5   0.000000   8.804839  25.521467  24.003314   # H_
 380 2 7   0.000000   8.256974  23.616205  24.893032   # C_3
 381 2 5   0.000000  11.247310  24.849534  25.335026   # H_
 382 2 5   0.000000  10.016528  25.998421  25.871400   # H_
 383 2 5   0.000000   5.426036  14.429466   0.237963   # H_
 384 2 5   0.000000   5.845214  15.379614  25.709284   # H_
 385 2 5   0.000000   3.632815  15.208374  24.993646   # H_
 386 2 5   0.000000   8.553556  22.599786  24.603858   # H_
 387 2 5   0.000000   7.268639  23.801843  24.460495   # H_
 388 2 5   0.000000   7.715975  24.674962  26.719994   # H_
 389 2 5   0.000000   7.917891  22.684655   1.233167   # H_
 390 2 5   0.000000   5.462572  17.674419  25.715531   # H_
 391 2 5   0.000000   3.290636  14.238626  26.428675   # H_
 392 2 5   0.000000   9.869962  24.187082  23.554678   # H_
 393 1 10   0.000000  24.962178  23.329590   0.000000   # O_1
 394 1 6   0.000000  23.743777  23.743789   0.000000   # C_2
 395 1 10   0.000000  23.329576  24.962189   0.000000   # O_1
 396 1 8   0.000000  22.686778  22.686789   0.000000   # C_R
 397 1 8   0.000000  23.004079  21.360789  26.896000   # C_R
 398 1 8   0.000000  21.360778  23.004088   0.000000   # C_R
 399 1 8   0.000000  22.068180  20.387188  26.896000   # C_R
 400 1 5   0.000000  23.899779  21.115990  26.896000   # H_
 401 1 8   0.000000  20.387179  22.068187   0.000000   # C_R
 402 1 5   0.000000  21.115977  23.899788   0.000000   # H_
 403 1 8   0.000000  20.691080  20.691087   0.000000   # C_R
 404 1 8   0.000000  19.652880  19.652886  26.896000   # C_R
 405 1 5   0.000000  22.337080  19.496888  26.896000   # H_
 406 1 8   0.000000  19.956781  18.275787  26.896000   # C_R
 407 2 9   0.000000  19.071516  22.579335  26.673779   # N_3
 408 1 8   0.000000  18.275780  19.956785   0.000000   # C_R
 409 1 8   0.000000  18.983182  17.339886  26.896000   # C_R
 410 2 9   0.000000  21.275829  17.758065   0.176462   # N_3
 411 1 8   0.000000  17.339881  18.983185   0.000000   # C_R
 412 1 5   0.000000  18.006879  20.847085   0.000000   # H_
 413 1 8   0.000000  17.657182  17.657185  26.896000   # C_R
 414 1 6   0.000000  16.600183  16.600184  26.896000   # C_2
 415 1 5   0.000000  19.227983  16.444186  26.896000   # H_
 416 1 5   0.000000  16.444181  19.227984   0.000000   # H_
 417 1 10   0.000000  17.014384  15.381784  26.896000   # O_1
 418 1 10   0.000000  15.381782  17.014383   0.000000   # O_1
 419 2 7   0.000000  23.189285  15.193100   0.810316   # C_3
 420 2 7   0.000000  21.680026  16.558652  26.323404   # C_3
 421 2 7   0.000000  17.604101  24.615158   2.515689   # C_3
 422 2 7   0.000000  18.626428  23.779464   0.483982   # C_3
 423 2 5   0.000000  21.039842  16.397787  25.447848   # H_
 424 2 7   0.000000  21.738828  15.324158   0.336599   # C_3
 425 2 7   0.000000  23.129495  16.722690  25.858970   # C_3
 426 2 7   0.000000  23.949917  16.355872   0.188834   # C_3
 427 2 5   0.000000  24.979778  16.088241  26.830755   # H_
 428 2 5   0.000000  23.985744  17.198749   0.889067   # H_
 429 2 5   0.000000  23.360223  17.728809  25.496080   # H_
 430 2 5   0.000000  23.342307  16.013629  25.049251   # H_
 431 2 7   0.000000  17.141273  24.016838   0.207350   # C_3
 432 2 5   0.000000  16.572899  23.079771   0.267660   # H_
 433 2 5   0.000000  16.965957  24.445830  26.111596   # H_
 434 2 7   0.000000  16.711635  24.957136   1.324153   # C_3
 435 2 5   0.000000  18.091161  25.521467   2.892686   # H_
 436 2 7   0.000000  18.639026  23.616205   2.002968   # C_3
 437 2 5   0.000000  15.648690  24.849534   1.560974   # H_
 438 2 5   0.000000  16.879472  25.998421   1.024600   # H_
 439 2 5   0.000000  21.469964  14.429466  26.658037   # H_
 440 2 5   0.000000  21.050786  15.379614   1.186716   # H_
 441 2 5   0.000000  23.263185  15.208374   1.902354   # H_
 442 2 5   0.000000  18.342444  22.599786   2.292142   # H_
 443 2 5   0.000000  19.627361  23.801843   2.435505   # H_
 444 2 5   0.000000  19.180025  24.674962   0.176006   # H_
 445 2 5   0.000000  18.978109  22.684655  25.662833   # H_
 446 2 5   0.000000  21.433428  17.674419   1.180469   # H_
 447 2 5   0.000000  23.605364  14.238626   0.467325   # H_
 448 2 5   0.000000  17.026038  24.187082   3.341322   # H_
 449 1 10   0.000000  24.962178   3.566410   0.000000   # O_1
 450 1 6   0.000000  23.743777   3.152211   0.000000   # C_2
 451 1 10   0.000000  23.329576   1.933811   0.000000   # O_1
 452 1 8   0.000000  22.686778   4.209211   0.000000   # C_R
 453 1 8   0.000000  23.004079   5.535211   0.000000   # C_R
 454 1 8   0.000000  21.360778   3.891912   0.000000   # C_R
 455 1 8   0.000000  22.068180   6.508812   0.000000   # C_R
 456 1 5   0.000000  23.899779   5.780010   0.000000   # H_
 457 1 8   0.000000  20.387179   4.827813   0.000000   # C_R
 458 1 5   0.000000  21.115977   2.996212   0.000000   # H_
 459 1 8   0.000000  20.691080   6.204913   0.000000   # C_R