 (written by mofun)

944 atoms
288 bonds
552 angles
768 dihedrals
0 impropers

10 atom types
5 bond types
9 angle types
12 dihedral types
   0.000000  26.896000 xlo xhi
   0.000000  26.896000 ylo yhi
   0.000000  26.896000 zlo zhi

Masses

 1 91.2240   # Zr3+4
 2 15.9994   # O_3
 3 12.0107   # C_3
 4 1.0079   # H_
 5 1.0079   # H_
 6 12.0107   # C_2
 7 12.0107   # C_3
 8 12.0107   # C_R
 9 14.0067   # N_3
 10 15.9994   # O_1

Pair Coeffs

 1   0.069000   2.783168 # Zr3+4
 2   0.060000   3.118146 # O_3
 3   0.105000   3.430851 # C_3
 4   0.044000   2.571134 # H_
 5 0.044000 2.571134   # H_
 6 0.105000 3.430851   # C_2
 7 0.105000 3.430851   # C_3
 8 0.105000 3.430851   # C_R
 9 0.069000 3.260689   # N_3
 10 0.060000 3.118146   # O_1

Bond Coeffs

 1 560.312976 1.423192   # C_R N_3
 2 527.945261 1.044419   # H_ N_3
 3 528.634538 1.451071   # C_3 N_3
 4 349.795899 1.514000   # C_3 C_3
 5 331.069389 1.109401   # C_3 H_

Angle Coeffs

 1 cosine/periodic  282.369526  -1  3   # C_R C_R N_3
 2 fourier  150.574599  0.317506  0.313225  0.272502   # C_R N_3 H_
 3 fourier  268.482172  0.317506  0.313225  0.272502   # C_3 N_3 C_R
 4 fourier  144.695053  0.317506  0.313225  0.272502   # C_3 N_3 H_
 5 fourier  303.297032  0.343737  0.374972  0.281246   # C_3 C_3 N_3
 6 fourier  169.780468  0.343737  0.374972  0.281246   # H_ C_3 N_3
 7 fourier  117.318683  0.343737  0.374972  0.281246   # C_3 C_3 H_
 8 fourier  75.498766  0.343737  0.374972  0.281246   # H_ C_3 H_
 9 fourier  214.211821  0.343737  0.374972  0.281246   # C_3 C_3 C_3

Dihedral Coeffs

 1 harmonic 3.368555 -1 2   # C_R C_R C_R N_3 M=4
 2 harmonic 3.368555 -1 2   # H_ C_R C_R N_3 M=4
 3 harmonic 0.125000 -1 6   # C_R C_R N_3 H_ M=4
 4 harmonic 0.125000 -1 6   # C_3 N_3 C_R C_R M=4
 5 harmonic 0.081375 1 3   # C_3 C_3 N_3 C_R M=6
 6 harmonic 0.081375 1 3   # C_R N_3 C_3 H_ M=6
 7 harmonic 0.081375 1 3   # C_3 C_3 N_3 H_ M=6
 8 harmonic 0.081375 1 3   # H_ C_3 N_3 H_ M=6
 9 harmonic 0.117722 1 3   # C_3 C_3 C_3 N_3 M=9
 10 harmonic 0.117722 1 3   # H_ C_3 C_3 N_3 M=9
 11 harmonic 0.117722 1 3   # C_3 C_3 C_3 H_ M=9
 12 harmonic 0.117722 1 3   # H_ C_3 C_3 H_ M=9

Atoms

 1 1 1   0.000000   2.475508   0.000000   0.000000   # Zr3+4
 2 1 1   0.000000  24.420492   0.000000   0.000000   # Zr3+4
 3 1 1   0.000000   0.000000   2.475508   0.000000   # Zr3+4
 4 1 1   0.000000   0.000000  24.420492   0.000000   # Zr3+4
 5 1 1   0.000000   0.000000   0.000000   2.475508   # Zr3+4
 6 1 1   0.000000   0.000000   0.000000  24.420492   # Zr3+4
 7 1 1   0.000000   2.475508  13.448000  13.448000   # Zr3+4
 8 1 1   0.000000  24.420492  13.448000  13.448000   # Zr3+4
 9 1 1   0.000000   0.000000  15.923508  13.448000   # Zr3+4
 10 1 1   0.000000   0.000000  10.972492  13.448000   # Zr3+4
 11 1 1   0.000000   0.000000  13.448000  15.923508   # Zr3+4
 12 1 1   0.000000   0.000000  13.448000  10.972492   # Zr3+4
 13 1 1   0.000000  15.923508   0.000000  13.448000   # Zr3+4
 14 1 1   0.000000  10.972492   0.000000  13.448000   # Zr3+4
 15 1 1   0.000000  13.448000   2.475508  13.448000   # Zr3+4
 16 1 1   0.000000  13.448000  24.420492  13.448000   # Zr3+4
 17 1 1   0.000000  13.448000   0.000000  15.923508   # Zr3+4
 18 1 1   0.000000  13.448000   0.000000  10.972492   # Zr3+4
 19 1 1   0.000000  15.923508  13.448000   0.000000   # Zr3+4
 20 1 1   0.000000  10.972492  13.448000   0.000000   # Zr3+4
 21 1 1   0.000000  13.448000  15.923508   0.000000   # Zr3+4
 22 1 1   0.000000  13.448000  10.972492   0.000000   # Zr3+4
 23 1 1   0.000000  13.448000  13.448000   2.475508   # Zr3+4
 24 1 1   0.000000  13.448000  13.448000  24.420492   # Zr3+4
 25 1 2   0.000000   1.221078   1.221078   1.221078   # O_3
 26 1 2   0.000000  25.674922  25.674922   1.221078   # O_3
 27 1 2   0.000000  25.674922   1.221078  25.674922   # O_3
 28 1 2   0.000000   1.221078  25.674922  25.674922   # O_3
 29 1 2   0.000000   1.221078   1.221078  25.674922   # O_3
 30 1 2   0.000000  25.674922  25.674922  25.674922   # O_3
 31 1 2   0.000000   1.221078  25.674922   1.221078   # O_3
 32 1 2   0.000000  25.674922   1.221078   1.221078   # O_3
 33 1 2   0.000000   1.221078  14.669078  14.669078   # O_3
 34 1 2   0.000000  25.674922  12.226922  14.669078   # O_3
 35 1 2   0.000000  25.674922  14.669078  12.226922   # O_3
 36 1 2   0.000000   1.221078  12.226922  12.226922   # O_3
 37 1 2   0.000000   1.221078  14.669078  12.226922   # O_3
 38 1 2   0.000000  25.674922  12.226922  12.226922   # O_3
 39 1 2   0.000000   1.221078  12.226922  14.669078   # O_3
 40 1 2   0.000000  25.674922  14.669078  14.669078   # O_3
 41 1 2   0.000000  14.669078   1.221078  14.669078   # O_3
 42 1 2   0.000000  12.226922  25.674922  14.669078   # O_3
 43 1 2   0.000000  12.226922   1.221078  12.226922   # O_3
 44 1 2   0.000000  14.669078  25.674922  12.226922   # O_3
 45 1 2   0.000000  14.669078   1.221078  12.226922   # O_3
 46 1 2   0.000000  12.226922  25.674922  12.226922   # O_3
 47 1 2   0.000000  14.669078  25.674922  14.669078   # O_3
 48 1 2   0.000000  12.226922   1.221078  14.669078   # O_3
 49 1 2   0.000000  14.669078  14.669078   1.221078   # O_3
 50 1 2   0.000000  12.226922  12.226922   1.221078   # O_3
 51 1 2   0.000000  12.226922  14.669078  25.674922   # O_3
 52 1 2   0.000000  14.669078  12.226922  25.674922   # O_3
 53 1 2   0.000000  14.669078  14.669078  25.674922   # O_3
 54 1 2   0.000000  12.226922  12.226922  25.674922   # O_3
 55 1 2   0.000000  14.669078  12.226922   1.221078   # O_3
 56 1 2   0.000000  12.226922  14.669078   1.221078   # O_3
 57 1 10   0.000000   3.566410   0.000000   1.933822   # O_1
 58 1 6   0.000000   3.152211   0.000000   3.152223   # C_2
 59 1 10   0.000000   1.933811  26.896000   3.566424   # O_1
 60 1 8   0.000000   4.209211   0.000000   4.209222   # C_R
 61 1 8   0.000000   5.535211   0.000000   3.891921   # C_R
 62 1 8   0.000000   3.891912   0.000000   5.535222   # C_R
 63 1 8   0.000000   6.508812   0.000000   4.827820   # C_R
 64 1 5   0.000000   5.780010  26.896000   2.996221   # H_
 65 1 8   0.000000   4.827813  26.896000   6.508821   # C_R
 66 1 5   0.000000   2.996212  26.896000   5.780023   # H_
 67 1 8   0.000000   6.204913   0.000000   6.204920   # C_R
 68 1 8   0.000000   7.243114  26.896000   7.243120   # C_R
 69 1 5   0.000000   7.399112   0.000000   4.558920   # H_
 70 1 8   0.000000   8.620213   0.000000   6.939219   # C_R
 71 1 5   0.000000   4.558914   0.000000   7.399122   # H_
 72 1 8   0.000000   6.939215   0.000000   8.620220   # C_R
 73 1 8   0.000000   9.556114   0.000000   7.912818   # C_R
 74 2 9   0.000000   9.120321   0.262313   5.626253   # N_3
 75 1 8   0.000000   7.912815   0.000000   9.556119   # C_R
 76 1 5   0.000000   6.048915   0.000000   8.889121   # H_
 77 1 8   0.000000   9.238815  26.896000   9.238818   # C_R
 78 1 6   0.000000  10.295816  26.896000  10.295817   # C_2
 79 1 5   0.000000  10.451814   0.000000   7.668017   # H_
 80 1 5   0.000000   7.668016   0.000000  10.451819   # H_
 81 1 10   0.000000  11.514216   0.000000   9.881616   # O_1
 82 1 10   0.000000   9.881617   0.000000  11.514218   # O_1
 83 2 5   0.000000   9.035533   1.270718   5.487761   # H_
 84 2 7   0.000000  10.445362  26.682666   5.230277   # C_3
 85 2 7   0.000000  10.561903  26.768086   3.707818   # C_3
 86 2 7   0.000000  11.932942  26.322329   3.226790   # C_3
 87 2 5   0.000000  12.720722   0.059179   3.648033   # H_
 88 2 5   0.000000  11.992001  26.388287   2.135950   # H_
 89 2 5   0.000000  12.132745  25.285817   3.516444   # H_
 90 2 5   0.000000  10.590939  25.642008   5.544766   # H_
 91 2 5   0.000000  11.227713   0.407865   5.682268   # H_
 92 2 5   0.000000  10.379398   0.901371   3.375521   # H_
 93 2 5   0.000000   9.791169  26.143792   3.239720   # H_
 94 1 10   0.000000  23.329590   0.000000   1.933822   # O_1
 95 1 6   0.000000  23.743789   0.000000   3.152223   # C_2
 96 1 10   0.000000  24.962189   0.000000   3.566424   # O_1
 97 1 8   0.000000  22.686789   0.000000   4.209222   # C_R
 98 1 8   0.000000  21.360789  26.896000   3.891921   # C_R
 99 1 8   0.000000  23.004088   0.000000   5.535222   # C_R
 100 1 8   0.000000  20.387188  26.896000   4.827820   # C_R
 101 1 5   0.000000  21.115990  26.896000   2.996221   # H_
 102 1 8   0.000000  22.068187   0.000000   6.508821   # C_R
 103 1 5   0.000000  23.899788   0.000000   5.780023   # H_
 104 1 8   0.000000  20.691087   0.000000   6.204920   # C_R
 105 1 8   0.000000  19.652886  26.896000   7.243120   # C_R
 106 1 5   0.000000  19.496888  26.896000   4.558920   # H_
 107 1 8   0.000000  18.275787  26.896000   6.939219   # C_R
 108 1 5   0.000000  22.337086   0.000000   7.399122   # H_
 109 1 8   0.000000  19.956785   0.000000   8.620220   # C_R
 110 1 8   0.000000  17.339886  26.896000   7.912818   # C_R
 111 2 9   0.000000  17.775679  26.633687   5.626253   # N_3
 112 1 8   0.000000  18.983185   0.000000   9.556119   # C_R
 113 1 5   0.000000  20.847085   0.000000   8.889121   # H_
 114 1 8   0.000000  17.657185  26.896000   9.238818   # C_R
 115 1 6   0.000000  16.600184  26.896000  10.295817   # C_2
 116 1 5   0.000000  16.444186  26.896000   7.668017   # H_
 117 1 5   0.000000  19.227984   0.000000  10.451819   # H_
 118 1 10   0.000000  15.381784  26.896000   9.881616   # O_1
 119 1 10   0.000000  17.014383  26.896000  11.514218   # O_1
 120 2 5   0.000000  17.860467  25.625282   5.487761   # H_
 121 2 7   0.000000  16.450638   0.213334   5.230277   # C_3
 122 2 7   0.000000  16.334097   0.127914   3.707818   # C_3
 123 2 7   0.000000  14.963058   0.573671   3.226790   # C_3
 124 2 5   0.000000  14.175278  26.836821   3.648033   # H_
 125 2 5   0.000000  14.903999   0.507713   2.135950   # H_
 126 2 5   0.000000  14.763255   1.610183   3.516444   # H_
 127 2 5   0.000000  16.305061   1.253992   5.544766   # H_
 128 2 5   0.000000  15.668287  26.488135   5.682268   # H_
 129 2 5   0.000000  16.516602  25.994629   3.375521   # H_
 130 2 5   0.000000  17.104831   0.752208   3.239720   # H_
 131 1 10   0.000000  23.329590   0.000000  24.962178   # O_1
 132 1 6   0.000000  23.743789   0.000000  23.743777   # C_2
 133 1 10   0.000000  24.962189   0.000000  23.329576   # O_1
 134 1 8   0.000000  22.686789   0.000000  22.686778   # C_R
 135 1 8   0.000000  21.360789  26.896000  23.004079   # C_R
 136 1 8   0.000000  23.004088   0.000000  21.360778   # C_R
 137 1 8   0.000000  20.387188  26.896000  22.068180   # C_R
 138 1 5   0.000000  21.115990  26.896000  23.899779   # H_
 139 1 8   0.000000  22.068187   0.000000  20.387179   # C_R
 140 1 5   0.000000  23.899788   0.000000  21.115977   # H_
 141 1 8   0.000000  20.691087   0.000000  20.691080   # C_R
 142 1 8   0.000000  19.652886  26.896000  19.652880   # C_R
 143 1 5   0.000000  19.496888  26.896000  22.337080   # H_
 144 1 8   0.000000  18.275787  26.896000  19.956781   # C_R
 145 1 5   0.000000  22.337086   0.000000  19.496878   # H_
 146 1 8   0.000000  19.956785   0.000000  18.275780   # C_R
 147 1 8   0.000000  17.339886  26.896000  18.983182   # C_R
 148 2 9   0.000000  17.775679   0.262313  21.269747   # N_3
 149 1 8   0.000000  18.983185   0.000000  17.339881   # C_R
 150 1 5   0.000000  20.847085   0.000000  18.006879   # H_
 151 1 8   0.000000  17.657185  26.896000  17.657182   # C_R
 152 1 6   0.000000  16.600184  26.896000  16.600183   # C_2
 153 1 5   0.000000  16.444186  26.896000  19.227983   # H_
 154 1 5   0.000000  19.227984   0.000000  16.444181   # H_
 155 1 10   0.000000  15.381784  26.896000  17.014384   # O_1
 156 1 10   0.000000  17.014383  26.896000  15.381782   # O_1
 157 2 5   0.000000  17.860467   1.270718  21.408239   # H_
 158 2 7   0.000000  16.450638  26.682666  21.665723   # C_3
 159 2 7   0.000000  16.334097  26.768086  23.188182   # C_3
 160 2 7   0.000000  14.963058  26.322329  23.669210   # C_3
 161 2 5   0.000000  14.175278   0.059179  23.247967   # H_
 162 2 5   0.000000  14.903999  26.388287  24.760050   # H_
 163 2 5   0.000000  14.763255  25.285817  23.379556   # H_
 164 2 5   0.000000  16.305061  25.642008  21.351234   # H_
 165 2 5   0.000000  15.668287   0.407865  21.213732   # H_
 166 2 5   0.000000  16.516602   0.901371  23.520479   # H_
 167 2 5   0.000000  17.104831  26.143792  23.656280   # H_
 168 1 10   0.000000   3.566410   0.000000  24.962178   # O_1
 169 1 6   0.000000   3.152211   0.000000  23.743777   # C_2
 170 1 10   0.000000   1.933811   0.000000  23.329576   # O_1
 171 1 8   0.000000   4.209211   0.000000  22.686778   # C_R
 172 1 8   0.000000   5.535211   0.000000  23.004079   # C_R
 173 1 8   0.000000   3.891912   0.000000  21.360778   # C_R
 174 1 8   0.000000   6.508812   0.000000  22.068180   # C_R
 175 1 5   0.000000   5.780010   0.000000  23.899779   # H_
 176 1 8   0.000000   4.827813   0.000000  20.387179   # C_R
 177 1 5   0.000000   2.996212   0.000000  21.115977   # H_
 178 1 8   0.000000   6.204913   0.000000  20.691080   # C_R
 179 1 8   0.000000   7.243114   0.000000  19.652880   # C_R
 180 1 5   0.000000   7.399112   0.000000  22.337080   # H_
 181 1 8   0.000000   8.620213   0.000000  19.956781   # C_R
 182 1 5   0.000000   4.558914   0.000000  19.496878   # H_
 183 1 8   0.000000   6.939215   0.000000  18.275780   # C_R
 184 1 8   0.000000   9.556114   0.000000  18.983182   # C_R
 185 2 9   0.000000   9.120321  26.633687  21.269747   # N_3
 186 1 8   0.000000   7.912815   0.000000  17.339881   # C_R
 187 1 5   0.000000   6.048915   0.000000  18.006879   # H_
 188 1 8   0.000000   9.238815   0.000000  17.657182   # C_R
 189 1 6   0.000000  10.295816   0.000000  16.600183   # C_2
 190 1 5   0.000000  10.451814   0.000000  19.227983   # H_
 191 1 5   0.000000   7.668016   0.000000  16.444181   # H_
 192 1 10   0.000000  11.514216   0.000000  17.014384   # O_1
 193 1 10   0.000000   9.881617   0.000000  15.381782   # O_1
 194 2 5   0.000000   9.035533  25.625282  21.408239   # H_
 195 2 7   0.000000  10.445362   0.213334  21.665723   # C_3
 196 2 7   0.000000  10.561903   0.127914  23.188182   # C_3
 197 2 7   0.000000  11.932942   0.573671  23.669210   # C_3
 198 2 5   0.000000  12.720722  26.836821  23.247967   # H_
 199 2 5   0.000000  11.992001   0.507713  24.760050   # H_
 200 2 5   0.000000  12.132745   1.610183  23.379556   # H_
 201 2 5   0.000000  10.590939   1.253992  21.351234   # H_
 202 2 5   0.000000  11.227713  26.488135  21.213732   # H_
 203 2 5   0.000000  10.379398  25.994629  23.520479   # H_
 204 2 5   0.000000   9.791169   0.752208  23.656280   # H_
 205 1 10   0.000000   1.933822   3.566410   0.000000   # O_1
 206 1 6   0.000000   3.152223   3.152211   0.000000   # C_2
 207 1 10   0.000000   3.566424   1.933811   0.000000   # O_1
 208 1 8   0.000000   4.209222   4.209211   0.000000   # C_R
 209 1 8   0.000000   3.891921   5.535211  26.896000   # C_R
 210 1 8   0.000000   5.535222   3.891912   0.000000   # C_R
 211 1 8   0.000000   4.827820   6.508812  26.896000   # C_R
 212 1 5   0.000000   2.996221   5.780010  26.896000   # H_
 213 1 8   0.000000   6.508821   4.827813   0.000000   # C_R
 214 1 5   0.000000   5.780023   2.996212   0.000000   # H_
 215 1 8   0.000000   6.204920   6.204913   0.000000   # C_R
 216 1 8   0.000000   7.243120   7.243114  26.896000   # C_R
 217 1 5   0.000000   4.558920   7.399112  26.896000   # H_
 218 1 8   0.000000   6.939219   8.620213  26.896000   # C_R
 219 1 5   0.000000   7.399122   4.558914   0.000000   # H_
 220 1 8   0.000000   8.620220   6.939215   0.000000   # C_R
 221 1 8   0.000000   7.912818   9.556114  26.896000   # C_R
 222 2 9   0.000000   5.626253   9.120321   0.262313   # N_3
 223 1 8   0.000000   9.556119   7.912815   0.000000   # C_R
 224 1 5   0.000000   8.889121   6.048915   0.000000   # H_
 225 1 8   0.000000   9.238818   9.238815  26.896000   # C_R
 226 1 6   0.000000  10.295817  10.295816  26.896000   # C_2
 227 1 5   0.000000   7.668017  10.451814  26.896000   # H_
 228 1 5   0.000000  10.451819   7.668016   0.000000   # H_
 229 1 10   0.000000   9.881616  11.514216  26.896000   # O_1
 230 1 10   0.000000  11.514218   9.881617  26.896000   # O_1
 231 2 5   0.000000   5.487761   9.035533   1.270718   # H_
 232 2 7   0.000000   5.230277  10.445362  26.682666   # C_3
 233 2 7   0.000000   3.707818  10.561903  26.768086   # C_3
 234 2 7   0.000000   3.226790  11.932942  26.322329   # C_3
 235 2 5   0.000000   3.648033  12.720722   0.059179   # H_
 236 2 5   0.000000   2.135950  11.992001  26.388287   # H_
 237 2 5   0.000000   3.516444  12.132745  25.285817   # H_
 238 2 5   0.000000   5.544766  10.590939  25.642008   # H_
 239 2 5   0.000000   5.682268  11.227713   0.407865   # H_
 240 2 5   0.000000   3.375521  10.379398   0.901371   # H_
 241 2 5   0.000000   3.239720   9.791169  26.143792   # H_
 242 1 10   0.000000   1.933822  23.329590   0.000000   # O_1
 243 1 6   0.000000   3.152223  23.743789   0.000000   # C_2
 244 1 10   0.000000   3.566424  24.962189   0.000000   # O_1
 245 1 8   0.000000   4.209222  22.686789   0.000000   # C_R
 246 1 8   0.000000   3.891921  21.360789   0.000000   # C_R
 247 1 8   0.000000   5.535222  23.004088   0.000000   # C_R
 248 1 8   0.000000   4.827820  20.387188   0.000000   # C_R
 249 1 5   0.000000   2.996221  21.115990   0.000000   # H_
 250 1 8   0.000000   6.508821  22.068187   0.000000   # C_R
 251 1 5   0.000000   5.780023  23.899788   0.000000   # H_
 252 1 8   0.000000   6.204920  20.691087   0.000000   # C_R
 253 1 8   0.000000   7.243120  19.652886   0.000000   # C_R
 254 1 5   0.000000   4.558920  19.496888   0.000000   # H_
 255 1 8   0.000000   6.939219  18.275787   0.000000   # C_R
 256 1 5   0.000000   7.399122  22.337086   0.000000   # H_
 257 1 8   0.000000   8.620220  19.956785   0.000000   # C_R
 258 1 8   0.000000   7.912818  17.339886   0.000000   # C_R
 259 2 9   0.000000   5.626253  17.775679  26.633687   # N_3
 260 1 8   0.000000   9.556119  18.983185   0.000000   # C_R
 261 1 5   0.000000   8.889121  20.847085   0.000000   # H_
 262 1 8   0.000000   9.238818  17.657185   0.000000   # C_R
 263 1 6   0.000000  10.295817  16.600184   0.000000   # C_2
 264 1 5   0.000000   7.668017  16.444186   0.000000   # H_
 265 1 5   0.000000  10.451819  19.227984   0.000000   # H_
 266 1 10   0.000000   9.881616  15.381784   0.000000   # O_1
 267 1 10   0.000000  11.514218  17.014383   0.000000   # O_1
 268 2 5   0.000000   5.487761  17.860467  25.625282   # H_
 269 2 7   0.000000   5.230277  16.450638   0.213334   # C_3
 270 2 7   0.000000   3.707818  16.334097   0.127914   # C_3
 271 2 7   0.000000   3.226790  14.963058   0.573671   # C_3
 272 2 5   0.000000   3.648033  14.175278  26.836821   # H_
 273 2 5   0.000000   2.135950  14.903999   0.507713   # H_
 274 2 5   0.000000   3.516444  14.763255   1.610183   # H_
 275 2 5   0.000000   5.544766  16.305061   1.253992   # H_
 276 2 5   0.000000   5.682268  15.668287  26.488135   # H_
 277 2 5   0.000000   3.375521  16.516602  25.994629   # H_
 278 2 5   0.000000   3.239720  17.104831   0.752208   # H_
 279 1 10   0.000000  24.962178  23.329590   0.000000   # O_1
 280 1 6   0.000000  23.743777  23.743789   0.000000   # C_2
 281 1 10   0.000000  23.329576  24.962189   0.000000   # O_1
 282 1 8   0.000000  22.686778  22.686789   0.000000   # C_R
 283 1 8   0.000000  23.004079  21.360789  26.896000   # C_R
 284 1 8   0.000000  21.360778  23.004088   0.000000   # C_R
 285 1 8   0.000000  22.068180  20.387188  26.896000   # C_R
 286 1 5   0.000000  23.899779  21.115990  26.896000   # H_
 287 1 8   0.000000  20.387179  22.068187   0.000000   # C_R
 288 1 5   0.000000  21.115977  23.899788   0.000000   # H_
 289 1 8   0.000000  20.691080  20.691087   0.000000   # C_R
 290 1 8   0.000000  19.652880  19.652886  26.896000   # C_R
 291 1 5   0.000000  22.337080  19.496888  26.896000   # H_
 292 1 8   0.000000  19.956781  18.275787  26.896000   # C_R
 293 1 5   0.000000  19.496878  22.337086   0.000000   # H_
 294 1 8   0.000000  18.275780  19.956785   0.000000   # C_R
 295 1 8   0.000000  18.983182  17.339886  26.896000   # C_R
 296 2 9   0.000000  21.269747  17.775679   0.262313   # N_3
 297 1 8   0.000000  17.339881  18.983185   0.000000   # C_R
 298 1 5   0.000000  18.006879  20.847085   0.000000   # H_
 299 1 8   0.000000  17.657182  17.657185  26.896000   # C_R
 300 1 6   0.000000  16.600183  16.600184  26.896000   # C_2
 301 1 5   0.000000  19.227983  16.444186  26.896000   # H_
 302 1 5   0.000000  16.444181  19.227984   0.000000   # H_
 303 1 10   0.000000  17.014384  15.381784  26.896000   # O_1
 304 1 10   0.000000  15.381782  17.014383   0.000000   # O_1
 305 2 5   0.000000  21.408239  17.860467   1.270718   # H_
 306 2 7   0.000000  21.665723  16.450638  26.682666   # C_3
 307 2 7   0.000000  23.188182  16.334097  26.768086   # C_3
 308 2 7   0.000000  23.669210  14.963058  26.322329   # C_3
 309 2 5   0.000000  23.247967  14.175278   0.059179   # H_
 310 2 5   0.000000  24.760050  14.903999  26.388287   # H_
 311 2 5   0.000000  23.379556  14.763255  25.285817   # H_
 312 2 5   0.000000  21.351234  16.305061  25.642008   # H_
 313 2 5   0.000000  21.213732  15.668287   0.407865   # H_
 314 2 5   0.000000  23.520479  16.516602   0.901371   # H_
 315 2 5   0.000000  23.656280  17.104831  26.143792   # H_
 316 1 10   0.000000  24.962178   3.566410   0.000000   # O_1
 317 1 6   0.000000  23.743777   3.152211   0.000000   # C_2
 318 1 10   0.000000  23.329576   1.933811   0.000000   # O_1
 319 1 8   0.000000  22.686778   4.209211   0.000000   # C_R
 320 1 8   0.000000  23.004079   5.535211   0.000000   # C_R
 321 1 8   0.000000  21.360778   3.891912   0.000000   # C_R
 322 1 8   0.000000  22.068180   6.508812   0.000000   # C_R
 323 1 5   0.000000  23.899779   5.780010   0.000000   # H_
 324 1 8   0.000000  20.387179   4.827813   0.000000   # C_R
 325 1 5   0.000000  21.115977   2.996212   0.000000   # H_
 326 1 8   0.000000  20.691080   6.204913   0.000000   # C_R
 327 1 8   0.000000  19.652880   7.243114   0.000000   # C_R
 328 1 5   0.000000  22.337080   7.399112   0.000000   # H_
 329 1 8   0.000000  19.956781   8.620213   0.000000   # C_R
 330 1 5   0.000000  19.496878   4.558914   0.000000   # H_
 331 1 8   0.000000  18.275780   6.939215   0.000000   # C_R
 332 1 8   0.000000  18.983182   9.556114   0.000000   # C_R
 333 2 9   0.000000  21.269747   9.120321  26.633687   # N_3
 334 1 8   0.000000  17.339881   7.912815   0.000000   # C_R
 335 1 5   0.000000  18.006879   6.048915   0.000000   # H_
 336 1 8   0.000000  17.657182   9.238815   0.000000   # C_R
 337 1 6   0.000000  16.600183  10.295816   0.000000   # C_2
 338 1 5   0.000000  19.227983  10.451814   0.000000   # H_
 339 1 5   0.000000  16.444181   7.668016   0.000000   # H_
 340 1 10   0.000000  17.014384  11.514216   0.000000   # O_1
 341 1 10   0.000000  15.381782   9.881617   0.000000   # O_1
 342 2 5   0.000000  21.408239   9.035533  25.625282   # H_
 343 2 7   0.000000  21.665723  10.445362   0.213334   # C_3
 344 2 7   0.000000  23.188182  10.561903   0.127914   # C_3
 345 2 7   0.000000  23.669210  11.932942   0.573671   # C_3
 346 2 5   0.000000  23.247967  12.720722  26.836821   # H_
 347 2 5   0.000000  24.760050  11.992001   0.507713   # H_
 348 2 5   0.000000  23.379556  12.132745   1.610183   # H_
 349 2 5   0.000000  21.351234  10.590939   1.253992   # H_
 350 2 5   0.000000  21.213732  11.227713  26.488135   # H_
 351 2 5   0.000000  23.520479  10.379398  25.994629   # H_
 352 2 5   0.000000  23.656280   9.791169   0.752208   # H_
 353 1 10   0.000000   0.000000   1.933822   3.566410   # O_1
 354 1 6   0.000000   0.000000   3.152223   3.152211   # C_2
 355 1 10   0.000000   0.000000   3.566424   1.933811   # O_1
 356 1 8   0.000000   0.000000   4.209222   4.209211   # C_R
 357 1 8   0.000000   0.000000   3.891921   5.535211   # C_R
 358 1 8   0.000000   0.000000   5.535222   3.891912   # C_R
 359 1 8   0.000000   0.000000   4.827820   6.508812   # C_R
 360 1 5   0.000000   0.000000   2.996221   5.780010   # H_
 361 1 8   0.000000   0.000000   6.508821   4.827813   # C_R
 362 1 5   0.000000   0.000000   5.780023   2.996212   # H_
 363 1 8   0.000000   0.000000   6.204920   6.204913   # C_R
 364 1 8   0.000000   0.000000   7.243120   7.243114   # C_R
 365 1 5   0.000000   0.000000   4.558920   7.399112   # H_
 366 1 8   0.000000   0.000000   6.939219   8.620213   # C_R
 367 1 5   0.000000   0.000000   7.399122   4.558914   # H_
 368 1 8   0.000000   0.000000   8.620220   6.939215   # C_R
 369 1 8   0.000000   0.000000   7.912818   9.556114   # C_R
 370 2 9   0.000000   0.262313   5.626253   9.120321   # N_3
 371 1 8   0.000000   0.000000   9.556119   7.912815   # C_R
 372 1 5   0.000000   0.000000   8.889121   6.048915   # H_
 373 1 8   0.000000   0.000000   9.238818   9.238815   # C_R
 374 1 6   0.000000   0.000000  10.295817  10.295816   # C_2
 375 1 5   0.000000   0.000000   7.668017  10.451814   # H_
 376 1 5   0.000000   0.000000  10.451819   7.668016   # H_
 377 1 10   0.000000   0.000000   9.881616  11.514216   # O_1
 378 1 10   0.000000   0.000000  11.514218   9.881617   # O_1
 379 2 5   0.000000   1.270718   5.487761   9.035533   # H_
 380 2 7   0.000000  26.682666   5.230277  10.445362   # C_3
 381 2 7   0.000000  26.768086   3.707818  10.561903   # C_3
 382 2 7   0.000000  26.322329   3.226790  11.932942   # C_3
 383 2 5   0.000000   0.059179   3.648033  12.720722   # H_
 384 2 5   0.000000  26.388287   2.135950  11.992001   # H_
 385 2 5   0.000000  25.285817   3.516444  12.132745   # H_
 386 2 5   0.000000  25.642008   5.544766  10.590939   # H_
 387 2 5   0.000000   0.407865   5.682268  11.227713   # H_
 388 2 5   0.000000   0.901371   3.375521  10.379398   # H_
 389 2 5   0.000000  26.143792   3.239720   9.791169   # H_
 390 1 10   0.000000   0.000000   1.933822  23.329590   # O_1
 391 1 6   0.000000   0.000000   3.152223  23.743789   # C_2
 392 1 10   0.000000   0.000000   3.566424  24.962189   # O_1
 393 1 8   0.000000   0.000000   4.209222  22.686789   # C_R
 394 1 8   0.000000   0.000000   3.891921  21.360789   # C_R
 395 1 8   0.000000   0.000000   5.535222  23.004088   # C_R
 396 1 8   0.000000   0.000000   4.827820  20.387188   # C_R
 397 1 5   0.000000   0.000000   2.996221  21.115990   # H_
 398 1 8   0.000000   0.000000   6.508821  22.068187   # C_R
 399 1 5   0.000000   0.000000   5.780023  23.899788   # H_
 400 1 8   0.000000   0.000000   6.204920  20.691087   # C_R
 401 1 8   0.000000   0.000000   7.243120  19.652886   # C_R
 402 1 5   0.000000   0.000000   4.558920  19.496888   # H_
 403 1 8   0.000000   0.000000   6.939219  18.275787   # C_R
 404 1 5   0.000000   0.000000   7.399122  22.337086   # H_
 405 1 8   0.000000   0.000000   8.620220  19.956785   # C_R
 406 1 8   0.000000   0.000000   7.912818  17.339886   # C_R
 407 2 9   0.000000  26.633687   5.626253  17.775679   # N_3
 408 1 8   0.000000   0.000000   9.556119  18.983185   # C_R
 409 1 5   0.000000   0.000000   8.889121  20.847085   # H_
 410 1 8   0.000000   0.000000   9.238818  17.657185   # C_R
 411 1 6   0.000000   0.000000  10.295817  16.600184   # C_2
 412 1 5   0.000000   0.000000   7.668017  16.444186   # H_
 413 1 5   0.000000   0.000000  10.451819  19.227984   # H_
 414 1 10   0.000000   0.000000   9.881616  15.381784   # O_1
 415 1 10   0.000000   0.000000  11.514218  17.014383   # O_1
 416 2 5   0.000000  25.625282   5.487761  17.860467   # H_
 417 2 7   0.000000   0.213334   5.230277  16.450638   # C_3
 418 2 7   0.000000   0.127914   3.707818  16.334097   # C_3
 419 2 7   0.000000   0.573671   3.226790  14.963058   # C_3
 420 2 5   0.000000  26.836821   3.648033  14.175278   # H_
 421 2 5   0.000000   0.507713   2.135950  14.903999   # H_
 422 2 5   0.000000   1.610183   3.516444  14.763255   # H_
 423 2 5   0.000000   1.253992   5.544766  16.305061   # H_
 424 2 5   0.000000  26.488135   5.682268  15.668287   # H_
 425 2 5   0.000000  25.994629   3.375521  16.516602   # H_
 426 2 5   0.000000   0.752208   3.239720  17.104831   # H_
 427 1 10   0.000000   0.000000  24.962178  23.329590   # O_1
 428 1 6   0.000000   0.000000  23.743777  23.743789   # C_2
 429 1 10   0.000000   0.000000  23.329576  24.962189   # O_1
 430 1 8   0.000000   0.000000  22.686778  22.686789   # C_R
 431 1 8   0.000000  26.896000  23.004079  21.360789   # C_R
 432 1 8   0.000000   0.000000  21.360778  23.004088   # C_R
 433 1 8   0.000000  26.896000  22.068180  20.387188   # C_R
 434 1 5   0.000000  26.896000  23.899779  21.115990   # H_
 435 1 8   0.000000   0.000000  20.387179  22.068187   # C_R
 436 1 5   0.000000   0.000000  21.115977  23.899788   # H_
 437 1 8   0.000000   0.000000  20.691080  20.691087   # C_R
 438 1 8   0.000000  26.896000  19.652880  19.652886   # C_R
 439 1 5   0.000000  26.896000  22.337080  19.496888   # H_
 440 1 8   0.000000  26.896000  19.956781  18.275787   # C_R
 441 1 5   0.000000   0.000000  19.496878  22.337086   # H_
 442 1 8   0.000000   0.000000  18.275780  19.956785   # C_R
 443 1 8   0.000000  26.896000  18.983182  17.339886   # C_R
 444 2 9   0.000000   0.262313  21.269747  17.775679   # N_3
 445 1 8   0.000000   0.000000  17.339881  18.983185   # C_R
 446 1 5   0.000000   0.000000  18.006879  20.847085   # H_
 447 1 8   0.000000  26.896000  17.657182  17.657185   # C_R
 448 1 6   0.000000  26.896000  16.600183  16.600184   # C_2
 449 1 5   0.000000  26.896000  19.227983  16.444186   # H_
 450 1 5   0.000000   0.000000  16.444181  19.227984   # H_
 451 1 10   0.000000  26.896000  17.014384  15.381784   # O_1
 452 1 10   0.000000   0.000000  15.381782  17.014383   # O_1
 453 2 5   0.000000   1.270718  21.408239  17.860467   # H_
 454 2 7   0.000000  26.682666  21.665723  16.450638   # C_3
 455 2 7   0.000000  26.768086  23.188182  16.334097   # C_3
 456 2 7   0.000000  26.322329  23.669210  14.963058   # C_3
 457 2 5   0.000000   0.059179  23.247967  14.175278   # H_
 458 2 5   0.000000  26.388287  24.760050  14.903999   # H_
 459 2 5   0.000000  25.285817  23.379556  14.763255   # H_