 (written by mofun)

960 atoms
576 bonds
1104 angles
1536 dihedrals
0 impropers

10 atom types
5 bond types
9 angle types
13 dihedral types
   0.000000  20.700400 xlo xhi
   0.000000  20.700400 ylo yhi
   0.000000  20.700400 zlo zhi

Masses

 1 91.2240   # Zr3+4
 2 15.9994   # O_3
 3 12.0107   # C_3
 4 1.0079   # H_
 5 1.0079   # H_
 6 12.0107   # C_2
 7 12.0107   # C_3
 8 12.0107   # C_R
 9 14.0067   # N_3
 10 15.9994   # O_1

Pair Coeffs

 1   0.069000   2.783168 # Zr3+4
 2   0.060000   3.118146 # O_3
 3   0.105000   3.430851 # C_3
 4   0.044000   2.571134 # H_
 5 0.044000 2.571134   # H_
 6 0.105000 3.430851   # C_2
 7 0.105000 3.430851   # C_3
 8 0.105000 3.430851   # C_R
 9 0.069000 3.260689   # N_3
 10 0.060000 3.118146   # O_1

Bond Coeffs

 1 560.312976 1.423192   # C_R N_3
 2 527.945261 1.044419   # H_ N_3
 3 528.634538 1.451071   # C_3 N_3
 4 331.069389 1.109401   # C_3 H_
 5 349.795899 1.514000   # C_3 C_3

Angle Coeffs

 1 cosine/periodic  282.369526  -1  3   # C_R C_R N_3
 2 fourier  268.482172  0.317506  0.313225  0.272502   # C_3 N_3 C_R
 3 fourier  150.574599  0.317506  0.313225  0.272502   # C_R N_3 H_
 4 fourier  144.695053  0.317506  0.313225  0.272502   # C_3 N_3 H_
 5 fourier  169.780468  0.343737  0.374972  0.281246   # H_ C_3 N_3
 6 fourier  303.297032  0.343737  0.374972  0.281246   # C_3 C_3 N_3
 7 fourier  75.498766  0.343737  0.374972  0.281246   # H_ C_3 H_
 8 fourier  117.318683  0.343737  0.374972  0.281246   # C_3 C_3 H_
 9 fourier  214.211821  0.343737  0.374972  0.281246   # C_3 C_3 C_3

Dihedral Coeffs

 1 harmonic 3.368555 -1 2   # H_ C_R C_R N_3 M=4
 2 harmonic 3.368555 -1 2   # C_R C_R C_R N_3 M=4
 3 harmonic 3.368555 -1 2   # C_2 C_R C_R N_3 M=4
 4 harmonic 0.125000 -1 6   # C_3 N_3 C_R C_R M=4
 5 harmonic 0.125000 -1 6   # C_R C_R N_3 H_ M=4
 6 harmonic 0.081375 1 3   # C_R N_3 C_3 H_ M=6
 7 harmonic 0.081375 1 3   # C_3 C_3 N_3 C_R M=6
 8 harmonic 0.081375 1 3   # H_ C_3 N_3 H_ M=6
 9 harmonic 0.081375 1 3   # C_3 C_3 N_3 H_ M=6
 10 harmonic 0.117722 1 3   # H_ C_3 C_3 N_3 M=9
 11 harmonic 0.117722 1 3   # C_3 C_3 C_3 N_3 M=9
 12 harmonic 0.117722 1 3   # H_ C_3 C_3 H_ M=9
 13 harmonic 0.117722 1 3   # C_3 C_3 C_3 H_ M=9

Atoms

 1 1 1   0.000000   2.481771   0.000000   0.000000   # Zr3+4
 2 1 1   0.000000   2.481771  10.350200  10.350200   # Zr3+4
 3 1 1   0.000000  12.831971   0.000000  10.350200   # Zr3+4
 4 1 1   0.000000  12.831971  10.350200   0.000000   # Zr3+4
 5 1 1   0.000000  18.218629   0.000000   0.000000   # Zr3+4
 6 1 1   0.000000  18.218629  10.350200  10.350200   # Zr3+4
 7 1 1   0.000000   7.868429   0.000000  10.350200   # Zr3+4
 8 1 1   0.000000   7.868429  10.350200   0.000000   # Zr3+4
 9 1 1   0.000000   0.000000   2.481771   0.000000   # Zr3+4
 10 1 1   0.000000   0.000000  12.831971  10.350200   # Zr3+4
 11 1 1   0.000000  10.350200   2.481771  10.350200   # Zr3+4
 12 1 1   0.000000  10.350200  12.831971   0.000000   # Zr3+4
 13 1 1   0.000000   0.000000  18.218629   0.000000   # Zr3+4
 14 1 1   0.000000   0.000000   7.868429  10.350200   # Zr3+4
 15 1 1   0.000000  10.350200  18.218629  10.350200   # Zr3+4
 16 1 1   0.000000  10.350200   7.868429   0.000000   # Zr3+4
 17 1 1   0.000000   0.000000   0.000000   2.481771   # Zr3+4
 18 1 1   0.000000   0.000000  10.350200  12.831971   # Zr3+4
 19 1 1   0.000000  10.350200   0.000000  12.831971   # Zr3+4
 20 1 1   0.000000  10.350200  10.350200   2.481771   # Zr3+4
 21 1 1   0.000000   0.000000   0.000000  18.218629   # Zr3+4
 22 1 1   0.000000   0.000000  10.350200   7.868429   # Zr3+4
 23 1 1   0.000000  10.350200   0.000000   7.868429   # Zr3+4
 24 1 1   0.000000  10.350200  10.350200  18.218629   # Zr3+4
 25 1 2   0.000000   1.161292   9.188908   9.188908   # O_3
 26 1 2   0.000000  11.511492  19.539108   9.188908   # O_3
 27 1 2   0.000000  11.511492   9.188908  19.539108   # O_3
 28 1 2   0.000000   9.188908   1.161292   9.188908   # O_3
 29 1 2   0.000000   9.188908  11.511492  19.539108   # O_3
 30 1 2   0.000000  19.539108  19.539108   1.161292   # O_3
 31 1 2   0.000000  19.539108   9.188908  11.511492   # O_3
 32 1 2   0.000000   1.161292   1.161292   1.161292   # O_3
 33 1 2   0.000000  11.511492  11.511492   1.161292   # O_3
 34 1 2   0.000000  19.539108   1.161292   1.161292   # O_3
 35 1 2   0.000000  19.539108  11.511492  11.511492   # O_3
 36 1 2   0.000000   9.188908   1.161292  11.511492   # O_3
 37 1 2   0.000000   9.188908  11.511492   1.161292   # O_3
 38 1 2   0.000000   1.161292  19.539108   1.161292   # O_3
 39 1 2   0.000000   1.161292   9.188908  11.511492   # O_3
 40 1 2   0.000000  11.511492  19.539108  11.511492   # O_3
 41 1 2   0.000000  11.511492   9.188908   1.161292   # O_3
 42 1 2   0.000000  19.539108  19.539108  19.539108   # O_3
 43 1 2   0.000000  19.539108   9.188908   9.188908   # O_3
 44 1 2   0.000000   9.188908  19.539108   9.188908   # O_3
 45 1 2   0.000000   9.188908   9.188908  19.539108   # O_3
 46 1 2   0.000000   1.161292   1.161292  19.539108   # O_3
 47 1 2   0.000000   1.161292  11.511492   9.188908   # O_3
 48 1 2   0.000000  11.511492   1.161292   9.188908   # O_3
 49 1 6   0.000000   3.179581   0.000000  17.520819   # C_2
 50 1 10   0.000000   3.528595   0.000000  18.727815   # O_1
 51 1 10   0.000000   1.972577  20.700400  17.171832   # O_1
 52 1 8   0.000000   4.243569   0.000000  16.456806   # C_R
 53 1 8   0.000000   3.816555  20.700400  15.162811   # C_R
 54 2 9   0.000000   2.471015   0.110978  14.744833   # N_3
 55 1 5   0.000000   4.580531  20.700400  13.051803   # H_
 56 1 8   0.000000   4.812543  20.700400  14.167800   # C_R
 57 1 8   0.000000   6.106548   0.000000  14.593785   # C_R
 58 1 8   0.000000   6.532563   0.000000  15.887781   # C_R
 59 1 8   0.000000   5.537574   0.000000  16.883792   # C_R
 60 1 5   0.000000   5.769587   0.000000  17.999789   # H_
 61 2 9   0.000000   7.867292  20.514789  16.286283   # N_3
 62 1 10   0.000000   8.377540   0.000000  13.878760   # O_1
 63 1 6   0.000000   7.170536   0.000000  13.529773   # C_2
 64 1 10   0.000000   6.821523  20.700400  12.322777   # O_1
 65 2 5   0.000000   1.896596   0.055263  15.613222   # H_
 66 2 7   0.000000   1.988596  19.894447  13.722069   # C_3
 67 2 5   0.000000   2.557215  19.985699  12.790534   # H_
 68 2 5   0.000000   0.965219  20.200832  13.472794   # H_
 69 2 7   0.000000   1.962141  18.444958  14.207033   # C_3
 70 2 5   0.000000   2.975278  18.100797  14.444085   # H_
 71 2 7   0.000000   1.363123  17.524216  13.155018   # C_3
 72 2 5   0.000000   1.375799  18.369028  15.130411   # H_
 73 2 5   0.000000   1.945913  17.556328  12.228739   # H_
 74 2 5   0.000000   0.332731  17.811836  12.922472   # H_
 75 2 5   0.000000   1.354256  16.490893  13.515264   # H_
 76 2 7   0.000000   8.404835   0.363953  17.511659   # C_3
 77 2 5   0.000000   8.466068  20.669906  15.446732   # H_
 78 2 5   0.000000   7.863370  20.697123  18.391322   # H_
 79 2 7   0.000000   8.455277   1.889744  17.490560   # C_3
 80 2 5   0.000000   9.426568  20.679965  17.620036   # H_
 81 2 5   0.000000   7.446949   2.307186  17.392792   # H_
 82 2 5   0.000000   9.027210   2.232481  16.619817   # H_
 83 2 7   0.000000   9.094159   2.433722  18.759177   # C_3
 84 2 5   0.000000   8.524924   2.131660  19.644601   # H_
 85 2 5   0.000000   9.124529   3.527130  18.731603   # H_
 86 2 5   0.000000  10.120056   2.067715  18.870463   # H_
 87 1 6   0.000000   3.179581  10.350200   7.170619   # C_2
 88 1 10   0.000000   3.528595  10.350200   8.377615   # O_1
 89 1 10   0.000000   1.972577  10.350200   6.821632   # O_1
 90 1 8   0.000000   4.243569  10.350200   6.106606   # C_R
 91 1 8   0.000000   3.816555  10.350200   4.812611   # C_R
 92 2 9   0.000000   2.471015  10.461178   4.394633   # N_3
 93 1 5   0.000000   4.580531  10.350200   2.701603   # H_
 94 1 8   0.000000   4.812543  10.350200   3.817600   # C_R
 95 1 8   0.000000   6.106548  10.350200   4.243585   # C_R
 96 1 8   0.000000   6.532563  10.350200   5.537581   # C_R
 97 1 8   0.000000   5.537574  10.350200   6.533592   # C_R
 98 1 5   0.000000   5.769587  10.350200   7.649589   # H_
 99 2 9   0.000000   7.867292  10.164589   5.936083   # N_3
 100 1 10   0.000000   8.377540  10.350200   3.528560   # O_1
 101 1 6   0.000000   7.170536  10.350200   3.179573   # C_2
 102 1 10   0.000000   6.821523  10.350200   1.972577   # O_1
 103 2 5   0.000000   1.896596  10.405463   5.263022   # H_
 104 2 7   0.000000   1.988596   9.544247   3.371869   # C_3
 105 2 5   0.000000   2.557215   9.635499   2.440334   # H_
 106 2 5   0.000000   0.965219   9.850632   3.122594   # H_
 107 2 7   0.000000   1.962141   8.094758   3.856833   # C_3
 108 2 5   0.000000   2.975278   7.750597   4.093885   # H_
 109 2 7   0.000000   1.363123   7.174016   2.804818   # C_3
 110 2 5   0.000000   1.375799   8.018828   4.780211   # H_
 111 2 5   0.000000   1.945913   7.206128   1.878539   # H_
 112 2 5   0.000000   0.332731   7.461636   2.572272   # H_
 113 2 5   0.000000   1.354256   6.140693   3.165064   # H_
 114 2 7   0.000000   8.404835  10.714153   7.161459   # C_3
 115 2 5   0.000000   8.466068  10.319706   5.096532   # H_
 116 2 5   0.000000   7.863370  10.346923   8.041122   # H_
 117 2 7   0.000000   8.455277  12.239944   7.140360   # C_3
 118 2 5   0.000000   9.426568  10.329765   7.269836   # H_
 119 2 5   0.000000   7.446949  12.657386   7.042592   # H_
 120 2 5   0.000000   9.027210  12.582681   6.269617   # H_
 121 2 7   0.000000   9.094159  12.783922   8.408977   # C_3
 122 2 5   0.000000   8.524924  12.481860   9.294401   # H_
 123 2 5   0.000000   9.124529  13.877330   8.381403   # H_
 124 2 5   0.000000  10.120056  12.417915   8.520263   # H_
 125 1 6   0.000000  13.529781   0.000000   7.170619   # C_2
 126 1 10   0.000000  13.878795   0.000000   8.377615   # O_1
 127 1 10   0.000000  12.322777  20.700400   6.821632   # O_1
 128 1 8   0.000000  14.593769   0.000000   6.106606   # C_R
 129 1 8   0.000000  14.166755  20.700400   4.812611   # C_R
 130 2 9   0.000000  12.821215   0.110978   4.394633   # N_3
 131 1 5   0.000000  14.930731  20.700400   2.701603   # H_
 132 1 8   0.000000  15.162743  20.700400   3.817600   # C_R
 133 1 8   0.000000  16.456748   0.000000   4.243585   # C_R
 134 1 8   0.000000  16.882763   0.000000   5.537581   # C_R
 135 1 8   0.000000  15.887774   0.000000   6.533592   # C_R
 136 1 5   0.000000  16.119787   0.000000   7.649589   # H_
 137 2 9   0.000000  18.217492  20.514789   5.936083   # N_3
 138 1 10   0.000000  18.727740   0.000000   3.528560   # O_1
 139 1 6   0.000000  17.520736   0.000000   3.179573   # C_2
 140 1 10   0.000000  17.171723  20.700400   1.972577   # O_1
 141 2 5   0.000000  12.246796   0.055263   5.263022   # H_
 142 2 7   0.000000  12.338796  19.894447   3.371869   # C_3
 143 2 5   0.000000  12.907415  19.985699   2.440334   # H_
 144 2 5   0.000000  11.315419  20.200832   3.122594   # H_
 145 2 7   0.000000  12.312341  18.444958   3.856833   # C_3
 146 2 5   0.000000  13.325478  18.100797   4.093885   # H_
 147 2 7   0.000000  11.713323  17.524216   2.804818   # C_3
 148 2 5   0.000000  11.725999  18.369028   4.780211   # H_
 149 2 5   0.000000  12.296113  17.556328   1.878539   # H_
 150 2 5   0.000000  10.682931  17.811836   2.572272   # H_
 151 2 5   0.000000  11.704456  16.490893   3.165064   # H_
 152 2 7   0.000000  18.755035   0.363953   7.161459   # C_3
 153 2 5   0.000000  18.816268  20.669906   5.096532   # H_
 154 2 5   0.000000  18.213570  20.697123   8.041122   # H_
 155 2 7   0.000000  18.805477   1.889744   7.140360   # C_3
 156 2 5   0.000000  19.776768  20.679965   7.269836   # H_
 157 2 5   0.000000  17.797149   2.307186   7.042592   # H_
 158 2 5   0.000000  19.377410   2.232481   6.269617   # H_
 159 2 7   0.000000  19.444359   2.433722   8.408976   # C_3
 160 2 5   0.000000  18.875123   2.131660   9.294401   # H_
 161 2 5   0.000000  19.474729   3.527130   8.381403   # H_
 162 2 5   0.000000  20.470256   2.067715   8.520263   # H_
 163 1 6   0.000000  13.529781  10.350200  17.520819   # C_2
 164 1 10   0.000000  13.878795  10.350200  18.727815   # O_1
 165 1 10   0.000000  12.322777  10.350200  17.171832   # O_1
 166 1 8   0.000000  14.593769  10.350200  16.456806   # C_R
 167 1 8   0.000000  14.166755  10.350200  15.162811   # C_R
 168 2 9   0.000000  12.821215  10.461178  14.744833   # N_3
 169 1 5   0.000000  14.930731  10.350200  13.051803   # H_
 170 1 8   0.000000  15.162743  10.350200  14.167800   # C_R
 171 1 8   0.000000  16.456748  10.350200  14.593785   # C_R
 172 1 8   0.000000  16.882763  10.350200  15.887781   # C_R
 173 1 8   0.000000  15.887774  10.350200  16.883792   # C_R
 174 1 5   0.000000  16.119787  10.350200  17.999789   # H_
 175 2 9   0.000000  18.217492  10.164589  16.286283   # N_3
 176 1 10   0.000000  18.727740  10.350200  13.878760   # O_1
 177 1 6   0.000000  17.520736  10.350200  13.529773   # C_2
 178 1 10   0.000000  17.171723  10.350200  12.322777   # O_1
 179 2 5   0.000000  12.246796  10.405463  15.613222   # H_
 180 2 7   0.000000  12.338796   9.544247  13.722069   # C_3
 181 2 5   0.000000  12.907415   9.635499  12.790534   # H_
 182 2 5   0.000000  11.315419   9.850632  13.472794   # H_
 183 2 7   0.000000  12.312341   8.094758  14.207033   # C_3
 184 2 5   0.000000  13.325478   7.750597  14.444085   # H_
 185 2 7   0.000000  11.713323   7.174016  13.155018   # C_3
 186 2 5   0.000000  11.725999   8.018828  15.130411   # H_
 187 2 5   0.000000  12.296113   7.206128  12.228739   # H_
 188 2 5   0.000000  10.682931   7.461636  12.922472   # H_
 189 2 5   0.000000  11.704456   6.140693  13.515264   # H_
 190 2 7   0.000000  18.755035  10.714153  17.511659   # C_3
 191 2 5   0.000000  18.816268  10.319706  15.446732   # H_
 192 2 5   0.000000  18.213570  10.346923  18.391322   # H_
 193 2 7   0.000000  18.805477  12.239944  17.490560   # C_3
 194 2 5   0.000000  19.776768  10.329765  17.620036   # H_
 195 2 5   0.000000  17.797149  12.657386  17.392792   # H_
 196 2 5   0.000000  19.377410  12.582681  16.619817   # H_
 197 2 7   0.000000  19.444359  12.783922  18.759177   # C_3
 198 2 5   0.000000  18.875124  12.481860  19.644601   # H_
 199 2 5   0.000000  19.474729  13.877330  18.731603   # H_
 200 2 5   0.000000  20.470256  12.417915  18.870463   # H_
 201 1 6   0.000000  17.520819   0.000000  17.520819   # C_2
 202 1 10   0.000000  17.171805   0.000000  18.727815   # O_1
 203 1 10   0.000000  18.727823   0.000000  17.171832   # O_1
 204 1 8   0.000000  16.456831   0.000000  16.456806   # C_R
 205 1 8   0.000000  16.883845   0.000000  15.162811   # C_R
 206 2 9   0.000000  18.229385  20.589422  14.744833   # N_3
 207 1 5   0.000000  16.119869   0.000000  13.051803   # H_
 208 1 8   0.000000  15.887857   0.000000  14.167800   # C_R
 209 1 8   0.000000  14.593852   0.000000  14.593785   # C_R
 210 1 8   0.000000  14.167837   0.000000  15.887781   # C_R
 211 1 8   0.000000  15.162826   0.000000  16.883792   # C_R
 212 1 5   0.000000  14.930813   0.000000  17.999789   # H_
 213 2 9   0.000000  12.833108   0.185611  16.286283   # N_3
 214 1 10   0.000000  12.322860   0.000000  13.878760   # O_1
 215 1 6   0.000000  13.529864   0.000000  13.529773   # C_2
 216 1 10   0.000000  13.878877   0.000000  12.322777   # O_1
 217 2 5   0.000000  18.803804  20.645137  15.613222   # H_
 218 2 7   0.000000  18.711804   0.805953  13.722069   # C_3
 219 2 5   0.000000  18.143185   0.714701  12.790534   # H_
 220 2 5   0.000000  19.735181   0.499568  13.472794   # H_
 221 2 7   0.000000  18.738259   2.255442  14.207033   # C_3
 222 2 5   0.000000  17.725122   2.599603  14.444085   # H_
 223 2 7   0.000000  19.337277   3.176184  13.155018   # C_3
 224 2 5   0.000000  19.324601   2.331372  15.130411   # H_
 225 2 5   0.000000  18.754487   3.144072  12.228739   # H_
 226 2 5   0.000000  20.367669   2.888564  12.922472   # H_
 227 2 5   0.000000  19.346144   4.209507  13.515264   # H_
 228 2 7   0.000000  12.295565  20.336447  17.511659   # C_3
 229 2 5   0.000000  12.234332   0.030494  15.446732   # H_
 230 2 5   0.000000  12.837030   0.003277  18.391322   # H_
 231 2 7   0.000000  12.245123  18.810656  17.490560   # C_3
 232 2 5   0.000000  11.273832   0.020435  17.620036   # H_
 233 2 5   0.000000  13.253451  18.393214  17.392792   # H_
 234 2 5   0.000000  11.673190  18.467919  16.619817   # H_
 235 2 7   0.000000  11.606241  18.266678  18.759177   # C_3
 236 2 5   0.000000  12.175476  18.568740  19.644601   # H_
 237 2 5   0.000000  11.575871  17.173270  18.731603   # H_
 238 2 5   0.000000  10.580344  18.632685  18.870463   # H_
 239 1 6   0.000000  17.520819  10.350200   7.170619   # C_2
 240 1 10   0.000000  17.171805  10.350200   8.377615   # O_1
 241 1 10   0.000000  18.727823  10.350200   6.821632   # O_1
 242 1 8   0.000000  16.456831  10.350200   6.106606   # C_R
 243 1 8   0.000000  16.883845  10.350200   4.812611   # C_R
 244 2 9   0.000000  18.229385  10.239222   4.394633   # N_3
 245 1 5   0.000000  16.119869  10.350200   2.701603   # H_
 246 1 8   0.000000  15.887857  10.350200   3.817600   # C_R
 247 1 8   0.000000  14.593852  10.350200   4.243585   # C_R
 248 1 8   0.000000  14.167837  10.350200   5.537581   # C_R
 249 1 8   0.000000  15.162826  10.350200   6.533592   # C_R
 250 1 5   0.000000  14.930813  10.350200   7.649589   # H_
 251 2 9   0.000000  12.833108  10.535811   5.936083   # N_3
 252 1 10   0.000000  12.322860  10.350200   3.528560   # O_1
 253 1 6   0.000000  13.529864  10.350200   3.179573   # C_2
 254 1 10   0.000000  13.878877  10.350200   1.972577   # O_1
 255 2 5   0.000000  18.803804  10.294937   5.263022   # H_
 256 2 7   0.000000  18.711804  11.156153   3.371869   # C_3
 257 2 5   0.000000  18.143185  11.064901   2.440334   # H_
 258 2 5   0.000000  19.735181  10.849768   3.122594   # H_
 259 2 7   0.000000  18.738259  12.605642   3.856833   # C_3
 260 2 5   0.000000  17.725122  12.949803   4.093885   # H_
 261 2 7   0.000000  19.337277  13.526384   2.804818   # C_3
 262 2 5   0.000000  19.324601  12.681572   4.780211   # H_
 263 2 5   0.000000  18.754487  13.494272   1.878539   # H_
 264 2 5   0.000000  20.367669  13.238764   2.572272   # H_
 265 2 5   0.000000  19.346144  14.559707   3.165064   # H_
 266 2 7   0.000000  12.295565   9.986247   7.161459   # C_3
 267 2 5   0.000000  12.234332  10.380694   5.096532   # H_
 268 2 5   0.000000  12.837030  10.353477   8.041122   # H_
 269 2 7   0.000000  12.245123   8.460456   7.140360   # C_3
 270 2 5   0.000000  11.273832  10.370635   7.269836   # H_
 271 2 5   0.000000  13.253451   8.043014   7.042592   # H_
 272 2 5   0.000000  11.673190   8.117719   6.269617   # H_
 273 2 7   0.000000  11.606240   7.916478   8.408977   # C_3
 274 2 5   0.000000  12.175476   8.218540   9.294401   # H_
 275 2 5   0.000000  11.575871   6.823070   8.381403   # H_
 276 2 5   0.000000  10.580344   8.282485   8.520263   # H_
 277 1 6   0.000000   7.170619   0.000000   7.170619   # C_2
 278 1 10   0.000000   6.821605   0.000000   8.377615   # O_1
 279 1 10   0.000000   8.377623   0.000000   6.821632   # O_1
 280 1 8   0.000000   6.106631   0.000000   6.106606   # C_R
 281 1 8   0.000000   6.533645   0.000000   4.812611   # C_R
 282 2 9   0.000000   7.879185  20.589422   4.394633   # N_3
 283 1 5   0.000000   5.769669   0.000000   2.701603   # H_
 284 1 8   0.000000   5.537657   0.000000   3.817600   # C_R
 285 1 8   0.000000   4.243652   0.000000   4.243585   # C_R
 286 1 8   0.000000   3.817637   0.000000   5.537581   # C_R
 287 1 8   0.000000   4.812626   0.000000   6.533592   # C_R
 288 1 5   0.000000   4.580613   0.000000   7.649589   # H_
 289 2 9   0.000000   2.482908   0.185611   5.936083   # N_3
 290 1 10   0.000000   1.972660   0.000000   3.528560   # O_1
 291 1 6   0.000000   3.179664   0.000000   3.179573   # C_2
 292 1 10   0.000000   3.528677   0.000000   1.972577   # O_1
 293 2 5   0.000000   8.453604  20.645137   5.263022   # H_
 294 2 7   0.000000   8.361604   0.805953   3.371869   # C_3
 295 2 5   0.000000   7.792985   0.714701   2.440334   # H_
 296 2 5   0.000000   9.384981   0.499568   3.122594   # H_
 297 2 7   0.000000   8.388059   2.255442   3.856833   # C_3
 298 2 5   0.000000   7.374922   2.599603   4.093885   # H_
 299 2 7   0.000000   8.987077   3.176184   2.804818   # C_3
 300 2 5   0.000000   8.974401   2.331372   4.780211   # H_
 301 2 5   0.000000   8.404287   3.144072   1.878539   # H_
 302 2 5   0.000000  10.017469   2.888564   2.572272   # H_
 303 2 5   0.000000   8.995944   4.209507   3.165064   # H_
 304 2 7   0.000000   1.945365  20.336447   7.161459   # C_3
 305 2 5   0.000000   1.884132   0.030494   5.096532   # H_
 306 2 5   0.000000   2.486830   0.003277   8.041122   # H_
 307 2 7   0.000000   1.894923  18.810656   7.140360   # C_3
 308 2 5   0.000000   0.923632   0.020435   7.269836   # H_
 309 2 5   0.000000   2.903251  18.393214   7.042592   # H_
 310 2 5   0.000000   1.322990  18.467919   6.269617   # H_
 311 2 7   0.000000   1.256041  18.266678   8.408977   # C_3
 312 2 5   0.000000   1.825276  18.568740   9.294401   # H_
 313 2 5   0.000000   1.225671  17.173270   8.381403   # H_
 314 2 5   0.000000   0.230144  18.632685   8.520263   # H_
 315 1 6   0.000000   7.170619  10.350200  17.520819   # C_2
 316 1 10   0.000000   6.821605  10.350200  18.727815   # O_1
 317 1 10   0.000000   8.377623  10.350200  17.171832   # O_1
 318 1 8   0.000000   6.106631  10.350200  16.456806   # C_R
 319 1 8   0.000000   6.533645  10.350200  15.162811   # C_R
 320 2 9   0.000000   7.879185  10.239222  14.744833   # N_3
 321 1 5   0.000000   5.769669  10.350200  13.051803   # H_
 322 1 8   0.000000   5.537657  10.350200  14.167800   # C_R
 323 1 8   0.000000   4.243652  10.350200  14.593785   # C_R
 324 1 8   0.000000   3.817637  10.350200  15.887781   # C_R
 325 1 8   0.000000   4.812626  10.350200  16.883792   # C_R
 326 1 5   0.000000   4.580613  10.350200  17.999789   # H_
 327 2 9   0.000000   2.482908  10.535811  16.286283   # N_3
 328 1 10   0.000000   1.972660  10.350200  13.878760   # O_1
 329 1 6   0.000000   3.179664  10.350200  13.529773   # C_2
 330 1 10   0.000000   3.528677  10.350200  12.322777   # O_1
 331 2 5   0.000000   8.453604  10.294937  15.613222   # H_
 332 2 7   0.000000   8.361604  11.156153  13.722069   # C_3
 333 2 5   0.000000   7.792985  11.064901  12.790534   # H_
 334 2 5   0.000000   9.384981  10.849768  13.472794   # H_
 335 2 7   0.000000   8.388059  12.605642  14.207033   # C_3
 336 2 5   0.000000   7.374922  12.949803  14.444085   # H_
 337 2 7   0.000000   8.987077  13.526384  13.155018   # C_3
 338 2 5   0.000000   8.974401  12.681572  15.130411   # H_
 339 2 5   0.000000   8.404287  13.494272  12.228739   # H_
 340 2 5   0.000000  10.017469  13.238764  12.922472   # H_
 341 2 5   0.000000   8.995944  14.559707  13.515264   # H_
 342 2 7   0.000000   1.945365   9.986247  17.511659   # C_3
 343 2 5   0.000000   1.884132  10.380694  15.446732   # H_
 344 2 5   0.000000   2.486830  10.353477  18.391322   # H_
 345 2 7   0.000000   1.894923   8.460456  17.490560   # C_3
 346 2 5   0.000000   0.923632  10.370635  17.620036   # H_
 347 2 5   0.000000   2.903251   8.043014  17.392792   # H_
 348 2 5   0.000000   1.322990   8.117719  16.619817   # H_
 349 2 7   0.000000   1.256041   7.916478  18.759177   # C_3
 350 2 5   0.000000   1.825276   8.218540  19.644601   # H_
 351 2 5   0.000000   1.225671   6.823070  18.731603   # H_
 352 2 5   0.000000   0.230144   8.282485  18.870463   # H_
 353 1 6   0.000000  17.520819   3.179581   0.000000   # C_2
 354 1 10   0.000000  18.727815   3.528595  20.700400   # O_1
 355 1 10   0.000000  17.171832   1.972577   0.000000   # O_1
 356 1 8   0.000000  16.456806   4.243569  20.700400   # C_R
 357 1 8   0.000000  15.162811   3.816555   0.000000   # C_R
 358 2 9   0.000000  14.744833   2.471015   0.110978   # N_3
 359 1 5   0.000000  13.051803   4.580531   0.000000   # H_
 360 1 8   0.000000  14.167800   4.812543   0.000000   # C_R
 361 1 8   0.000000  14.593785   6.106548  20.700400   # C_R
 362 1 8   0.000000  15.887781   6.532563  20.700400   # C_R
 363 1 8   0.000000  16.883792   5.537574  20.700400   # C_R
 364 1 5   0.000000  17.999789   5.769587  20.700400   # H_
 365 2 9   0.000000  16.286283   7.867292  20.514789   # N_3
 366 1 10   0.000000  13.878760   8.377540  20.700400   # O_1
 367 1 6   0.000000  13.529773   7.170536  20.700400   # C_2
 368 1 10   0.000000  12.322777   6.821523   0.000000   # O_1
 369 2 5   0.000000  15.613222   1.896596   0.055263   # H_
 370 2 7   0.000000  13.722069   1.988596  19.894447   # C_3
 371 2 5   0.000000  12.790534   2.557215  19.985699   # H_
 372 2 5   0.000000  13.472794   0.965219  20.200832   # H_
 373 2 7   0.000000  14.207033   1.962141  18.444958   # C_3
 374 2 5   0.000000  14.444085   2.975278  18.100797   # H_
 375 2 7   0.000000  13.155018   1.363123  17.524216   # C_3
 376 2 5   0.000000  15.130411   1.375799  18.369028   # H_
 377 2 5   0.000000  12.228739   1.945913  17.556328   # H_
 378 2 5   0.000000  12.922472   0.332731  17.811836   # H_
 379 2 5   0.000000  13.515264   1.354256  16.490893   # H_
 380 2 7   0.000000  17.511659   8.404835   0.363953   # C_3
 381 2 5   0.000000  15.446732   8.466068  20.669906   # H_
 382 2 5   0.000000  18.391322   7.863370  20.697123   # H_
 383 2 7   0.000000  17.490560   8.455277   1.889744   # C_3
 384 2 5   0.000000  17.620036   9.426568  20.679965   # H_
 385 2 5   0.000000  17.392792   7.446949   2.307186   # H_
 386 2 5   0.000000  16.619817   9.027210   2.232481   # H_
 387 2 7   0.000000  18.759177   9.094159   2.433722   # C_3
 388 2 5   0.000000  19.644601   8.524924   2.131660   # H_
 389 2 5   0.000000  18.731603   9.124529   3.527130   # H_
 390 2 5   0.000000  18.870463  10.120056   2.067715   # H_
 391 1 6   0.000000  17.520819  13.529781  10.350200   # C_2
 392 1 10   0.000000  18.727815  13.878795  10.350200   # O_1
 393 1 10   0.000000  17.171832  12.322777  10.350200   # O_1
 394 1 8   0.000000  16.456806  14.593769  10.350200   # C_R
 395 1 8   0.000000  15.162811  14.166755  10.350200   # C_R
 396 2 9   0.000000  14.744833  12.821215  10.461178   # N_3
 397 1 5   0.000000  13.051803  14.930731  10.350200   # H_
 398 1 8   0.000000  14.167800  15.162743  10.350200   # C_R
 399 1 8   0.000000  14.593785  16.456748  10.350200   # C_R
 400 1 8   0.000000  15.887781  16.882763  10.350200   # C_R
 401 1 8   0.000000  16.883792  15.887774  10.350200   # C_R
 402 1 5   0.000000  17.999789  16.119787  10.350200   # H_
 403 2 9   0.000000  16.286283  18.217492  10.164589   # N_3
 404 1 10   0.000000  13.878760  18.727740  10.350200   # O_1
 405 1 6   0.000000  13.529773  17.520736  10.350200   # C_2
 406 1 10   0.000000  12.322777  17.171723  10.350200   # O_1
 407 2 5   0.000000  15.613222  12.246796  10.405463   # H_
 408 2 7   0.000000  13.722069  12.338796   9.544247   # C_3
 409 2 5   0.000000  12.790534  12.907415   9.635499   # H_
 410 2 5   0.000000  13.472794  11.315419   9.850632   # H_
 411 2 7   0.000000  14.207033  12.312341   8.094758   # C_3
 412 2 5   0.000000  14.444085  13.325478   7.750597   # H_
 413 2 7   0.000000  13.155018  11.713323   7.174016   # C_3
 414 2 5   0.000000  15.130411  11.725999   8.018828   # H_
 415 2 5   0.000000  12.228739  12.296113   7.206128   # H_
 416 2 5   0.000000  12.922472  10.682931   7.461636   # H_
 417 2 5   0.000000  13.515264  11.704456   6.140693   # H_
 418 2 7   0.000000  17.511659  18.755035  10.714153   # C_3
 419 2 5   0.000000  15.446732  18.816268  10.319706   # H_
 420 2 5   0.000000  18.391322  18.213570  10.346923   # H_
 421 2 7   0.000000  17.490560  18.805477  12.239944   # C_3
 422 2 5   0.000000  17.620036  19.776768  10.329765   # H_
 423 2 5   0.000000  17.392792  17.797149  12.657386   # H_
 424 2 5   0.000000  16.619817  19.377410  12.582681   # H_
 425 2 7   0.000000  18.759177  19.444359  12.783922   # C_3
 426 2 5   0.000000  19.644601  18.875124  12.481860   # H_
 427 2 5   0.000000  18.731603  19.474729  13.877330   # H_
 428 2 5   0.000000  18.870463  20.470256  12.417915   # H_
 429 1 6   0.000000   7.170619   3.179581  10.350200   # C_2
 430 1 10   0.000000   8.377615   3.528595  10.350200   # O_1
 431 1 10   0.000000   6.821632   1.972577  10.350200   # O_1
 432 1 8   0.000000   6.106606   4.243569  10.350200   # C_R
 433 1 8   0.000000   4.812611   3.816555  10.350200   # C_R
 434 2 9   0.000000   4.394633   2.471015  10.461178   # N_3
 435 1 5   0.000000   2.701603   4.580531  10.350200   # H_
 436 1 8   0.000000   3.817600   4.812543  10.350200   # C_R
 437 1 8   0.000000   4.243585   6.106548  10.350200   # C_R
 438 1 8   0.000000   5.537581   6.532563  10.350200   # C_R
 439 1 8   0.000000   6.533592   5.537574  10.350200   # C_R
 440 1 5   0.000000   7.649589   5.769587  10.350200   # H_
 441 2 9   0.000000   5.936083   7.867292  10.164589   # N_3
 442 1 10   0.000000   3.528560   8.377540  10.350200   # O_1
 443 1 6   0.000000   3.179573   7.170536  10.350200   # C_2
 444 1 10   0.000000   1.972577   6.821523  10.350200   # O_1
 445 2 5   0.000000   5.263022   1.896596  10.405463   # H_
 446 2 7   0.000000   3.371869   1.988596   9.544247   # C_3
 447 2 5   0.000000   2.440334   2.557215   9.635499   # H_
 448 2 5   0.000000   3.122594   0.965219   9.850632   # H_
 449 2 7   0.000000   3.856833   1.962141   8.094758   # C_3
 450 2 5   0.000000   4.093885   2.975278   7.750597   # H_
 451 2 7   0.000000   2.804818   1.363123   7.174016   # C_3
 452 2 5   0.000000   4.780211   1.375799   8.018828   # H_
 453 2 5   0.000000   1.878539   1.945913   7.206128   # H_
 454 2 5   0.000000   2.572272   0.332731   7.461636   # H_
 455 2 5   0.000000   3.165064   1.354256   6.140693   # H_
 456 2 7   0.000000   7.161459   8.404835  10.714153   # C_3
 457 2 5   0.000000   5.096532   8.466068  10.319706   # H_
 458 2 5   0.000000   8.041122   7.863370  10.346923   # H_
 459 2 7   0.000000   7.140360   8.455277  12.239944   # C_3