 (written by mofun)

1056 atoms
672 bonds
1296 angles
1728 dihedrals
0 impropers

10 atom types
4 bond types
7 angle types
11 dihedral types
   0.000000  20.700400 xlo xhi
   0.000000  20.700400 ylo yhi
   0.000000  20.700400 zlo zhi

Masses

 1 91.2240   # Zr3+4
 2 15.9994   # O_3
 3 12.0107   # C_3
 4 1.0079   # H_
 5 1.0079   # H_
 6 12.0107   # C_2
 7 12.0107   # C_3
 8 12.0107   # C_R
 9 15.9994   # O_1
 10 15.9994   # O_3

Pair Coeffs

 1   0.069000   2.783168 # Zr3+4
 2   0.060000   3.118146 # O_3
 3   0.105000   3.430851 # C_3
 4   0.044000   2.571134 # H_
 5 0.044000 2.571134   # H_
 6 0.105000 3.430851   # C_2
 7 0.105000 3.430851   # C_3
 8 0.105000 3.430851   # C_R
 9 0.060000 3.118146   # O_1
 10 0.060000 3.118146   # O_3

Bond Coeffs

 1 572.510195 1.366311   # C_R O_3
 2 539.248552 1.393845   # C_3 O_3
 3 349.795899 1.514000   # C_3 C_3
 4 331.069389 1.109401   # C_3 H_

Angle Coeffs

 1 cosine/periodic  271.563462  -1  3   # C_R C_R O_3
 2 fourier  320.948910  0.300235  0.267331  0.266745   # C_3 O_3 C_R
 3 fourier  290.032745  0.343737  0.374972  0.281246   # C_3 C_3 O_3
 4 fourier  165.777838  0.343737  0.374972  0.281246   # H_ C_3 O_3
 5 fourier  117.318683  0.343737  0.374972  0.281246   # C_3 C_3 H_
 6 fourier  75.498766  0.343737  0.374972  0.281246   # H_ C_3 H_
 7 fourier  214.211821  0.343737  0.374972  0.281246   # C_3 C_3 C_3

Dihedral Coeffs

 1 harmonic 2.500000 1 2   # C_3 O_3 C_R C_R M=2
 2 harmonic 3.368555 -1 2   # C_2 C_R C_R O_3 M=4
 3 harmonic 3.368555 -1 2   # C_R C_R C_R O_3 M=4
 4 harmonic 3.368555 -1 2   # H_ C_R C_R O_3 M=4
 5 harmonic 0.032550 1 3   # C_3 C_3 O_3 C_R M=3
 6 harmonic 0.032550 1 3   # C_R O_3 C_3 H_ M=3
 7 harmonic 0.117722 1 3   # H_ C_3 C_3 O_3 M=9
 8 harmonic 0.117722 1 3   # C_3 C_3 C_3 O_3 M=9
 9 harmonic 0.117722 1 3   # H_ C_3 C_3 H_ M=9
 10 harmonic 0.117722 1 3   # C_3 C_3 C_3 H_ M=9
 11 harmonic 0.117722 1 3   # C_3 C_3 C_3 C_3 M=9

Atoms

 1 1 1   0.000000   2.481771   0.000000   0.000000   # Zr3+4
 2 1 1   0.000000   2.481771  10.350200  10.350200   # Zr3+4
 3 1 1   0.000000  12.831971   0.000000  10.350200   # Zr3+4
 4 1 1   0.000000  12.831971  10.350200   0.000000   # Zr3+4
 5 1 1   0.000000  18.218629   0.000000   0.000000   # Zr3+4
 6 1 1   0.000000  18.218629  10.350200  10.350200   # Zr3+4
 7 1 1   0.000000   7.868429   0.000000  10.350200   # Zr3+4
 8 1 1   0.000000   7.868429  10.350200   0.000000   # Zr3+4
 9 1 1   0.000000   0.000000   2.481771   0.000000   # Zr3+4
 10 1 1   0.000000   0.000000  12.831971  10.350200   # Zr3+4
 11 1 1   0.000000  10.350200   2.481771  10.350200   # Zr3+4
 12 1 1   0.000000  10.350200  12.831971   0.000000   # Zr3+4
 13 1 1   0.000000   0.000000  18.218629   0.000000   # Zr3+4
 14 1 1   0.000000   0.000000   7.868429  10.350200   # Zr3+4
 15 1 1   0.000000  10.350200  18.218629  10.350200   # Zr3+4
 16 1 1   0.000000  10.350200   7.868429   0.000000   # Zr3+4
 17 1 1   0.000000   0.000000   0.000000   2.481771   # Zr3+4
 18 1 1   0.000000   0.000000  10.350200  12.831971   # Zr3+4
 19 1 1   0.000000  10.350200   0.000000  12.831971   # Zr3+4
 20 1 1   0.000000  10.350200  10.350200   2.481771   # Zr3+4
 21 1 1   0.000000   0.000000   0.000000  18.218629   # Zr3+4
 22 1 1   0.000000   0.000000  10.350200   7.868429   # Zr3+4
 23 1 1   0.000000  10.350200   0.000000   7.868429   # Zr3+4
 24 1 1   0.000000  10.350200  10.350200  18.218629   # Zr3+4
 25 1 2   0.000000   1.161292   9.188908   9.188908   # O_3
 26 1 2   0.000000  11.511492  19.539108   9.188908   # O_3
 27 1 2   0.000000  11.511492   9.188908  19.539108   # O_3
 28 1 2   0.000000   9.188908   1.161292   9.188908   # O_3
 29 1 2   0.000000   9.188908  11.511492  19.539108   # O_3
 30 1 2   0.000000  19.539108  19.539108   1.161292   # O_3
 31 1 2   0.000000  19.539108   9.188908  11.511492   # O_3
 32 1 2   0.000000   1.161292   1.161292   1.161292   # O_3
 33 1 2   0.000000  11.511492  11.511492   1.161292   # O_3
 34 1 2   0.000000  19.539108   1.161292   1.161292   # O_3
 35 1 2   0.000000  19.539108  11.511492  11.511492   # O_3
 36 1 2   0.000000   9.188908   1.161292  11.511492   # O_3
 37 1 2   0.000000   9.188908  11.511492   1.161292   # O_3
 38 1 2   0.000000   1.161292  19.539108   1.161292   # O_3
 39 1 2   0.000000   1.161292   9.188908  11.511492   # O_3
 40 1 2   0.000000  11.511492  19.539108  11.511492   # O_3
 41 1 2   0.000000  11.511492   9.188908   1.161292   # O_3
 42 1 2   0.000000  19.539108  19.539108  19.539108   # O_3
 43 1 2   0.000000  19.539108   9.188908   9.188908   # O_3
 44 1 2   0.000000   9.188908  19.539108   9.188908   # O_3
 45 1 2   0.000000   9.188908   9.188908  19.539108   # O_3
 46 1 2   0.000000   1.161292   1.161292  19.539108   # O_3
 47 1 2   0.000000   1.161292  11.511492   9.188908   # O_3
 48 1 2   0.000000  11.511492   1.161292   9.188908   # O_3
 49 1 6   0.000000   3.179581   0.000000  17.520819   # C_2
 50 1 9   0.000000   3.528595   0.000000  18.727815   # O_1
 51 1 9   0.000000   1.972577  20.700400  17.171832   # O_1
 52 1 8   0.000000   4.243569   0.000000  16.456806   # C_R
 53 1 8   0.000000   3.816555  20.700400  15.162811   # C_R
 54 1 5   0.000000   2.700552  20.700400  14.930824   # H_
 55 2 10   0.000000   4.450942  20.699470  12.848969   # O_3
 56 1 8   0.000000   4.812543  20.700400  14.167800   # C_R
 57 1 8   0.000000   6.106548   0.000000  14.593785   # C_R
 58 1 8   0.000000   6.532563   0.000000  15.887781   # C_R
 59 1 8   0.000000   5.537574   0.000000  16.883792   # C_R
 60 2 10   0.000000   5.895189  20.699469  18.201886   # O_3
 61 1 5   0.000000   7.648566   0.000000  16.119768   # H_
 62 1 9   0.000000   8.377540   0.000000  13.878760   # O_1
 63 1 6   0.000000   7.170536   0.000000  13.529773   # C_2
 64 1 9   0.000000   6.821523  20.700400  12.322777   # O_1
 65 2 7   0.000000   3.073185   0.000898  12.499541   # C_3
 66 2 7   0.000000   2.961047  20.699888  10.976452   # C_3
 67 2 5   0.000000   2.585291   0.902076  12.890170   # H_
 68 2 5   0.000000   2.582470  19.802126  12.891536   # H_
 69 2 5   0.000000   3.486739   0.873309  10.571623   # H_
 70 2 7   0.000000   1.500821   0.004083  10.529257   # C_3
 71 2 5   0.000000   3.480761  19.821640  10.573787   # H_
 72 2 5   0.000000   0.992246   0.889160  10.929057   # H_
 73 2 5   0.000000   0.985172  19.825415  10.933549   # H_
 74 2 7   0.000000   1.376645   0.000644   9.014716   # C_3
 75 2 7   0.000000   7.269241   0.000702  18.562955   # C_3
 76 2 7   0.000000   7.356498  20.699630  20.087896   # C_3
 77 2 5   0.000000   7.761437   0.901710  18.177695   # H_
 78 2 5   0.000000   7.764056  19.802058  18.176256   # H_
 79 2 5   0.000000   6.822943   0.872789  20.483222   # H_
 80 2 7   0.000000   8.806324   0.003494  20.565684   # C_3
 81 2 5   0.000000   6.828622  19.821769  20.481097   # H_
 82 2 5   0.000000   9.323532   0.888632  20.177468   # H_
 83 2 5   0.000000   9.330266  19.824478  20.173282   # H_
 84 2 7   0.000000   8.894916   0.000182   1.382684   # C_3
 85 2 5   0.000000   8.407314   0.884062   1.806098   # H_
 86 2 5   0.000000   9.942200   0.004890   1.700823   # H_
 87 2 5   0.000000   8.416659  19.809550   1.801621   # H_
 88 2 5   0.000000   1.853972   0.884505   8.579892   # H_
 89 2 5   0.000000   0.321911   0.005657   8.721910   # H_
 90 2 5   0.000000   1.844178  19.809677   8.584768   # H_
 91 1 6   0.000000   3.179581  10.350200   7.170619   # C_2
 92 1 9   0.000000   3.528595  10.350200   8.377615   # O_1
 93 1 9   0.000000   1.972577  10.350200   6.821632   # O_1
 94 1 8   0.000000   4.243569  10.350200   6.106606   # C_R
 95 1 8   0.000000   3.816555  10.350200   4.812611   # C_R
 96 1 5   0.000000   2.700552  10.350200   4.580624   # H_
 97 2 10   0.000000   4.450942  10.349270   2.498769   # O_3
 98 1 8   0.000000   4.812543  10.350200   3.817600   # C_R
 99 1 8   0.000000   6.106548  10.350200   4.243585   # C_R
 100 1 8   0.000000   6.532563  10.350200   5.537581   # C_R
 101 1 8   0.000000   5.537574  10.350200   6.533592   # C_R
 102 2 10   0.000000   5.895189  10.349269   7.851686   # O_3
 103 1 5   0.000000   7.648566  10.350200   5.769568   # H_
 104 1 9   0.000000   8.377540  10.350200   3.528560   # O_1
 105 1 6   0.000000   7.170536  10.350200   3.179573   # C_2
 106 1 9   0.000000   6.821523  10.350200   1.972577   # O_1
 107 2 7   0.000000   3.073185  10.351098   2.149341   # C_3
 108 2 7   0.000000   2.961047  10.349688   0.626252   # C_3
 109 2 5   0.000000   2.585291  11.252276   2.539970   # H_
 110 2 5   0.000000   2.582470   9.451926   2.541336   # H_
 111 2 5   0.000000   3.486739  11.223509   0.221423   # H_
 112 2 7   0.000000   1.500821  10.354283   0.179057   # C_3
 113 2 5   0.000000   3.480761   9.471440   0.223587   # H_
 114 2 5   0.000000   0.992246  11.239360   0.578857   # H_
 115 2 5   0.000000   0.985172   9.475215   0.583349   # H_
 116 2 7   0.000000   1.376645  10.350844  19.364916   # C_3
 117 2 7   0.000000   7.269241  10.350902   8.212755   # C_3
 118 2 7   0.000000   7.356498  10.349430   9.737696   # C_3
 119 2 5   0.000000   7.761437  11.251910   7.827495   # H_
 120 2 5   0.000000   7.764056   9.451858   7.826056   # H_
 121 2 5   0.000000   6.822943  11.222989  10.133022   # H_
 122 2 7   0.000000   8.806324  10.353694  10.215484   # C_3
 123 2 5   0.000000   6.828622   9.471569  10.130897   # H_
 124 2 5   0.000000   9.323532  11.238832   9.827268   # H_
 125 2 5   0.000000   9.330266   9.474278   9.823082   # H_
 126 2 7   0.000000   8.894916  10.350382  11.732884   # C_3
 127 2 5   0.000000   8.407314  11.234262  12.156298   # H_
 128 2 5   0.000000   9.942200  10.355090  12.051023   # H_
 129 2 5   0.000000   8.416659   9.459350  12.151821   # H_
 130 2 5   0.000000   1.853972  11.234705  18.930092   # H_
 131 2 5   0.000000   0.321911  10.355857  19.072110   # H_
 132 2 5   0.000000   1.844178   9.459477  18.934968   # H_
 133 1 6   0.000000  13.529781   0.000000   7.170619   # C_2
 134 1 9   0.000000  13.878795   0.000000   8.377615   # O_1
 135 1 9   0.000000  12.322777  20.700400   6.821632   # O_1
 136 1 8   0.000000  14.593769   0.000000   6.106606   # C_R
 137 1 8   0.000000  14.166755  20.700400   4.812611   # C_R
 138 1 5   0.000000  13.050752  20.700400   4.580624   # H_
 139 2 10   0.000000  14.801142  20.699470   2.498769   # O_3
 140 1 8   0.000000  15.162743  20.700400   3.817600   # C_R
 141 1 8   0.000000  16.456748   0.000000   4.243585   # C_R
 142 1 8   0.000000  16.882763   0.000000   5.537581   # C_R
 143 1 8   0.000000  15.887774   0.000000   6.533592   # C_R
 144 2 10   0.000000  16.245389  20.699469   7.851686   # O_3
 145 1 5   0.000000  17.998766   0.000000   5.769568   # H_
 146 1 9   0.000000  18.727740   0.000000   3.528560   # O_1
 147 1 6   0.000000  17.520736   0.000000   3.179573   # C_2
 148 1 9   0.000000  17.171723  20.700400   1.972577   # O_1
 149 2 7   0.000000  13.423385   0.000898   2.149341   # C_3
 150 2 7   0.000000  13.311247  20.699888   0.626252   # C_3
 151 2 5   0.000000  12.935491   0.902076   2.539970   # H_
 152 2 5   0.000000  12.932670  19.802126   2.541336   # H_
 153 2 5   0.000000  13.836939   0.873309   0.221423   # H_
 154 2 7   0.000000  11.851021   0.004083   0.179057   # C_3
 155 2 5   0.000000  13.830961  19.821640   0.223587   # H_
 156 2 5   0.000000  11.342446   0.889160   0.578857   # H_
 157 2 5   0.000000  11.335372  19.825415   0.583349   # H_
 158 2 7   0.000000  11.726845   0.000644  19.364916   # C_3
 159 2 7   0.000000  17.619441   0.000702   8.212755   # C_3
 160 2 7   0.000000  17.706698  20.699630   9.737696   # C_3
 161 2 5   0.000000  18.111637   0.901710   7.827495   # H_
 162 2 5   0.000000  18.114256  19.802058   7.826056   # H_
 163 2 5   0.000000  17.173143   0.872789  10.133022   # H_
 164 2 7   0.000000  19.156524   0.003494  10.215484   # C_3
 165 2 5   0.000000  17.178822  19.821769  10.130897   # H_
 166 2 5   0.000000  19.673732   0.888632   9.827268   # H_
 167 2 5   0.000000  19.680466  19.824478   9.823082   # H_
 168 2 7   0.000000  19.245116   0.000182  11.732884   # C_3
 169 2 5   0.000000  18.757514   0.884062  12.156298   # H_
 170 2 5   0.000000  20.292400   0.004890  12.051023   # H_
 171 2 5   0.000000  18.766859  19.809550  12.151821   # H_
 172 2 5   0.000000  12.204172   0.884505  18.930092   # H_
 173 2 5   0.000000  10.672111   0.005657  19.072110   # H_
 174 2 5   0.000000  12.194378  19.809677  18.934968   # H_
 175 1 6   0.000000  13.529781  10.350200  17.520819   # C_2
 176 1 9   0.000000  13.878795  10.350200  18.727815   # O_1
 177 1 9   0.000000  12.322777  10.350200  17.171832   # O_1
 178 1 8   0.000000  14.593769  10.350200  16.456806   # C_R
 179 1 8   0.000000  14.166755  10.350200  15.162811   # C_R
 180 1 5   0.000000  13.050752  10.350200  14.930824   # H_
 181 2 10   0.000000  14.801142  10.349270  12.848969   # O_3
 182 1 8   0.000000  15.162743  10.350200  14.167800   # C_R
 183 1 8   0.000000  16.456748  10.350200  14.593785   # C_R
 184 1 8   0.000000  16.882763  10.350200  15.887781   # C_R
 185 1 8   0.000000  15.887774  10.350200  16.883792   # C_R
 186 2 10   0.000000  16.245389  10.349269  18.201886   # O_3
 187 1 5   0.000000  17.998766  10.350200  16.119768   # H_
 188 1 9   0.000000  18.727740  10.350200  13.878760   # O_1
 189 1 6   0.000000  17.520736  10.350200  13.529773   # C_2
 190 1 9   0.000000  17.171723  10.350200  12.322777   # O_1
 191 2 7   0.000000  13.423385  10.351098  12.499541   # C_3
 192 2 7   0.000000  13.311247  10.349688  10.976452   # C_3
 193 2 5   0.000000  12.935491  11.252276  12.890170   # H_
 194 2 5   0.000000  12.932670   9.451926  12.891536   # H_
 195 2 5   0.000000  13.836939  11.223509  10.571623   # H_
 196 2 7   0.000000  11.851021  10.354283  10.529257   # C_3
 197 2 5   0.000000  13.830961   9.471440  10.573787   # H_
 198 2 5   0.000000  11.342446  11.239360  10.929057   # H_
 199 2 5   0.000000  11.335372   9.475215  10.933549   # H_
 200 2 7   0.000000  11.726845  10.350844   9.014716   # C_3
 201 2 7   0.000000  17.619441  10.350902  18.562955   # C_3
 202 2 7   0.000000  17.706698  10.349430  20.087896   # C_3
 203 2 5   0.000000  18.111637  11.251910  18.177695   # H_
 204 2 5   0.000000  18.114256   9.451858  18.176256   # H_
 205 2 5   0.000000  17.173143  11.222989  20.483222   # H_
 206 2 7   0.000000  19.156524  10.353694  20.565684   # C_3
 207 2 5   0.000000  17.178822   9.471569  20.481097   # H_
 208 2 5   0.000000  19.673732  11.238832  20.177468   # H_
 209 2 5   0.000000  19.680466   9.474278  20.173282   # H_
 210 2 7   0.000000  19.245116  10.350382   1.382684   # C_3
 211 2 5   0.000000  18.757514  11.234262   1.806098   # H_
 212 2 5   0.000000  20.292400  10.355090   1.700823   # H_
 213 2 5   0.000000  18.766859   9.459350   1.801621   # H_
 214 2 5   0.000000  12.204172  11.234705   8.579892   # H_
 215 2 5   0.000000  10.672111  10.355857   8.721910   # H_
 216 2 5   0.000000  12.194378   9.459477   8.584768   # H_
 217 1 6   0.000000  17.520819   0.000000  17.520819   # C_2
 218 1 9   0.000000  17.171805   0.000000  18.727815   # O_1
 219 1 9   0.000000  18.727823   0.000000  17.171832   # O_1
 220 1 8   0.000000  16.456831   0.000000  16.456806   # C_R
 221 1 8   0.000000  16.883845   0.000000  15.162811   # C_R
 222 1 5   0.000000  17.999848   0.000000  14.930824   # H_
 223 2 10   0.000000  16.249458   0.000930  12.848969   # O_3
 224 1 8   0.000000  15.887857   0.000000  14.167800   # C_R
 225 1 8   0.000000  14.593852   0.000000  14.593785   # C_R
 226 1 8   0.000000  14.167837   0.000000  15.887781   # C_R
 227 1 8   0.000000  15.162826   0.000000  16.883792   # C_R
 228 2 10   0.000000  14.805211   0.000931  18.201886   # O_3
 229 1 5   0.000000  13.051834   0.000000  16.119768   # H_
 230 1 9   0.000000  12.322860   0.000000  13.878760   # O_1
 231 1 6   0.000000  13.529864   0.000000  13.529773   # C_2
 232 1 9   0.000000  13.878877   0.000000  12.322777   # O_1
 233 2 7   0.000000  17.627215  20.699502  12.499541   # C_3
 234 2 7   0.000000  17.739353   0.000512  10.976452   # C_3
 235 2 5   0.000000  18.115109  19.798324  12.890170   # H_
 236 2 5   0.000000  18.117930   0.898274  12.891536   # H_
 237 2 5   0.000000  17.213661  19.827091  10.571623   # H_
 238 2 7   0.000000  19.199579  20.696317  10.529257   # C_3
 239 2 5   0.000000  17.219639   0.878760  10.573787   # H_
 240 2 5   0.000000  19.708154  19.811240  10.929057   # H_
 241 2 5   0.000000  19.715228   0.874985  10.933549   # H_
 242 2 7   0.000000  19.323755  20.699756   9.014716   # C_3
 243 2 7   0.000000  13.431159  20.699698  18.562955   # C_3
 244 2 7   0.000000  13.343902   0.000770  20.087896   # C_3
 245 2 5   0.000000  12.938963  19.798690  18.177695   # H_
 246 2 5   0.000000  12.936344   0.898342  18.176256   # H_
 247 2 5   0.000000  13.877457  19.827611  20.483222   # H_
 248 2 7   0.000000  11.894076  20.696906  20.565684   # C_3
 249 2 5   0.000000  13.871778   0.878631  20.481097   # H_
 250 2 5   0.000000  11.376868  19.811768  20.177468   # H_
 251 2 5   0.000000  11.370134   0.875922  20.173282   # H_
 252 2 7   0.000000  11.805484  20.700218   1.382684   # C_3
 253 2 5   0.000000  12.293086  19.816338   1.806098   # H_
 254 2 5   0.000000  10.758200  20.695510   1.700823   # H_
 255 2 5   0.000000  12.283741   0.890850   1.801621   # H_
 256 2 5   0.000000  18.846428  19.815895   8.579892   # H_
 257 2 5   0.000000  20.378489  20.694743   8.721910   # H_
 258 2 5   0.000000  18.856222   0.890723   8.584768   # H_
 259 1 6   0.000000  17.520819  10.350200   7.170619   # C_2
 260 1 9   0.000000  17.171805  10.350200   8.377615   # O_1
 261 1 9   0.000000  18.727823  10.350200   6.821632   # O_1
 262 1 8   0.000000  16.456831  10.350200   6.106606   # C_R
 263 1 8   0.000000  16.883845  10.350200   4.812611   # C_R
 264 1 5   0.000000  17.999848  10.350200   4.580624   # H_
 265 2 10   0.000000  16.249458  10.351130   2.498769   # O_3
 266 1 8   0.000000  15.887857  10.350200   3.817600   # C_R
 267 1 8   0.000000  14.593852  10.350200   4.243585   # C_R
 268 1 8   0.000000  14.167837  10.350200   5.537581   # C_R
 269 1 8   0.000000  15.162826  10.350200   6.533592   # C_R
 270 2 10   0.000000  14.805211  10.351131   7.851686   # O_3
 271 1 5   0.000000  13.051834  10.350200   5.769568   # H_
 272 1 9   0.000000  12.322860  10.350200   3.528560   # O_1
 273 1 6   0.000000  13.529864  10.350200   3.179573   # C_2
 274 1 9   0.000000  13.878877  10.350200   1.972577   # O_1
 275 2 7   0.000000  17.627215  10.349302   2.149341   # C_3
 276 2 7   0.000000  17.739353  10.350712   0.626252   # C_3
 277 2 5   0.000000  18.115109   9.448124   2.539970   # H_
 278 2 5   0.000000  18.117930  11.248474   2.541336   # H_
 279 2 5   0.000000  17.213661   9.476891   0.221423   # H_
 280 2 7   0.000000  19.199579  10.346117   0.179057   # C_3
 281 2 5   0.000000  17.219639  11.228960   0.223587   # H_
 282 2 5   0.000000  19.708154   9.461040   0.578857   # H_
 283 2 5   0.000000  19.715228  11.225185   0.583349   # H_
 284 2 7   0.000000  19.323755  10.349556  19.364916   # C_3
 285 2 7   0.000000  13.431159  10.349498   8.212755   # C_3
 286 2 7   0.000000  13.343902  10.350970   9.737696   # C_3
 287 2 5   0.000000  12.938963   9.448490   7.827495   # H_
 288 2 5   0.000000  12.936344  11.248542   7.826056   # H_
 289 2 5   0.000000  13.877457   9.477411  10.133022   # H_
 290 2 7   0.000000  11.894076  10.346706  10.215484   # C_3
 291 2 5   0.000000  13.871778  11.228831  10.130897   # H_
 292 2 5   0.000000  11.376868   9.461568   9.827268   # H_
 293 2 5   0.000000  11.370135  11.226122   9.823082   # H_
 294 2 7   0.000000  11.805484  10.350018  11.732884   # C_3
 295 2 5   0.000000  12.293086   9.466138  12.156298   # H_
 296 2 5   0.000000  10.758200  10.345310  12.051023   # H_
 297 2 5   0.000000  12.283741  11.241050  12.151821   # H_
 298 2 5   0.000000  18.846428   9.465695  18.930092   # H_
 299 2 5   0.000000  20.378489  10.344543  19.072110   # H_
 300 2 5   0.000000  18.856222  11.240923  18.934968   # H_
 301 1 6   0.000000   7.170619   0.000000   7.170619   # C_2
 302 1 9   0.000000   6.821605   0.000000   8.377615   # O_1
 303 1 9   0.000000   8.377623   0.000000   6.821632   # O_1
 304 1 8   0.000000   6.106631   0.000000   6.106606   # C_R
 305 1 8   0.000000   6.533645   0.000000   4.812611   # C_R
 306 1 5   0.000000   7.649648   0.000000   4.580624   # H_
 307 2 10   0.000000   5.899258   0.000930   2.498769   # O_3
 308 1 8   0.000000   5.537657   0.000000   3.817600   # C_R
 309 1 8   0.000000   4.243652   0.000000   4.243585   # C_R
 310 1 8   0.000000   3.817637   0.000000   5.537581   # C_R
 311 1 8   0.000000   4.812626   0.000000   6.533592   # C_R
 312 2 10   0.000000   4.455011   0.000931   7.851686   # O_3
 313 1 5   0.000000   2.701634   0.000000   5.769568   # H_
 314 1 9   0.000000   1.972660   0.000000   3.528560   # O_1
 315 1 6   0.000000   3.179664   0.000000   3.179573   # C_2
 316 1 9   0.000000   3.528677   0.000000   1.972577   # O_1
 317 2 7   0.000000   7.277015  20.699502   2.149341   # C_3
 318 2 7   0.000000   7.389153   0.000512   0.626252   # C_3
 319 2 5   0.000000   7.764909  19.798324   2.539970   # H_
 320 2 5   0.000000   7.767730   0.898274   2.541336   # H_
 321 2 5   0.000000   6.863461  19.827091   0.221423   # H_
 322 2 7   0.000000   8.849379  20.696317   0.179057   # C_3
 323 2 5   0.000000   6.869439   0.878760   0.223587   # H_
 324 2 5   0.000000   9.357954  19.811240   0.578857   # H_
 325 2 5   0.000000   9.365028   0.874985   0.583349   # H_
 326 2 7   0.000000   8.973555  20.699756  19.364916   # C_3
 327 2 7   0.000000   3.080959  20.699698   8.212755   # C_3
 328 2 7   0.000000   2.993702   0.000770   9.737696   # C_3
 329 2 5   0.000000   2.588763  19.798690   7.827495   # H_
 330 2 5   0.000000   2.586144   0.898342   7.826056   # H_
 331 2 5   0.000000   3.527257  19.827611  10.133022   # H_
 332 2 7   0.000000   1.543876  20.696906  10.215484   # C_3
 333 2 5   0.000000   3.521578   0.878631  10.130897   # H_
 334 2 5   0.000000   1.026668  19.811768   9.827268   # H_
 335 2 5   0.000000   1.019934   0.875922   9.823082   # H_
 336 2 7   0.000000   1.455284  20.700218  11.732884   # C_3
 337 2 5   0.000000   1.942886  19.816338  12.156298   # H_
 338 2 5   0.000000   0.408000  20.695510  12.051023   # H_
 339 2 5   0.000000   1.933541   0.890850  12.151821   # H_
 340 2 5   0.000000   8.496228  19.815895  18.930092   # H_
 341 2 5   0.000000  10.028289  20.694743  19.072110   # H_
 342 2 5   0.000000   8.506022   0.890723  18.934968   # H_
 343 1 6   0.000000   7.170619  10.350200  17.520819   # C_2
 344 1 9   0.000000   6.821605  10.350200  18.727815   # O_1
 345 1 9   0.000000   8.377623  10.350200  17.171832   # O_1
 346 1 8   0.000000   6.106631  10.350200  16.456806   # C_R
 347 1 8   0.000000   6.533645  10.350200  15.162811   # C_R
 348 1 5   0.000000   7.649648  10.350200  14.930824   # H_
 349 2 10   0.000000   5.899258  10.351130  12.848969   # O_3
 350 1 8   0.000000   5.537657  10.350200  14.167800   # C_R
 351 1 8   0.000000   4.243652  10.350200  14.593785   # C_R
 352 1 8   0.000000   3.817637  10.350200  15.887781   # C_R
 353 1 8   0.000000   4.812626  10.350200  16.883792   # C_R
 354 2 10   0.000000   4.455011  10.351131  18.201886   # O_3
 355 1 5   0.000000   2.701634  10.350200  16.119768   # H_
 356 1 9   0.000000   1.972660  10.350200  13.878760   # O_1
 357 1 6   0.000000   3.179664  10.350200  13.529773   # C_2
 358 1 9   0.000000   3.528677  10.350200  12.322777   # O_1
 359 2 7   0.000000   7.277015  10.349302  12.499541   # C_3
 360 2 7   0.000000   7.389153  10.350712  10.976452   # C_3
 361 2 5   0.000000   7.764909   9.448124  12.890170   # H_
 362 2 5   0.000000   7.767730  11.248474  12.891536   # H_
 363 2 5   0.000000   6.863461   9.476891  10.571623   # H_
 364 2 7   0.000000   8.849379  10.346117  10.529257   # C_3
 365 2 5   0.000000   6.869439  11.228960  10.573787   # H_
 366 2 5   0.000000   9.357954   9.461040  10.929057   # H_
 367 2 5   0.000000   9.365028  11.225185  10.933549   # H_
 368 2 7   0.000000   8.973555  10.349556   9.014716   # C_3
 369 2 7   0.000000   3.080959  10.349498  18.562955   # C_3
 370 2 7   0.000000   2.993702  10.350970  20.087896   # C_3
 371 2 5   0.000000   2.588763   9.448490  18.177695   # H_
 372 2 5   0.000000   2.586144  11.248542  18.176256   # H_
 373 2 5   0.000000   3.527257   9.477411  20.483222   # H_
 374 2 7   0.000000   1.543876  10.346706  20.565684   # C_3
 375 2 5   0.000000   3.521578  11.228831  20.481097   # H_
 376 2 5   0.000000   1.026668   9.461568  20.177468   # H_
 377 2 5   0.000000   1.019934  11.226122  20.173282   # H_
 378 2 7   0.000000   1.455284  10.350018   1.382684   # C_3
 379 2 5   0.000000   1.942886   9.466138   1.806098   # H_
 380 2 5   0.000000   0.408000  10.345310   1.700823   # H_
 381 2 5   0.000000   1.933541  11.241050   1.801621   # H_
 382 2 5   0.000000   8.496228   9.465695   8.579892   # H_
 383 2 5   0.000000  10.028289  10.344543   8.721910   # H_
 384 2 5   0.000000   8.506022  11.240923   8.584768   # H_
 385 1 6   0.000000  17.520819   3.179581   0.000000   # C_2
 386 1 9   0.000000  18.727815   3.528595  20.700400   # O_1
 387 1 9   0.000000  17.171832   1.972577   0.000000   # O_1
 388 1 8   0.000000  16.456806   4.243569  20.700400   # C_R
 389 1 8   0.000000  15.162811   3.816555   0.000000   # C_R
 390 1 5   0.000000  14.930824   2.700552   0.000000   # H_
 391 2 10   0.000000  12.848969   4.450942  20.699470   # O_3
 392 1 8   0.000000  14.167800   4.812543   0.000000   # C_R
 393 1 8   0.000000  14.593785   6.106548  20.700400   # C_R
 394 1 8   0.000000  15.887781   6.532563  20.700400   # C_R
 395 1 8   0.000000  16.883792   5.537574  20.700400   # C_R
 396 2 10   0.000000  18.201886   5.895189  20.699469   # O_3
 397 1 5   0.000000  16.119768   7.648566  20.700400   # H_
 398 1 9   0.000000  13.878760   8.377540  20.700400   # O_1
 399 1 6   0.000000  13.529773   7.170536  20.700400   # C_2
 400 1 9   0.000000  12.322777   6.821523   0.000000   # O_1
 401 2 7   0.000000  12.499541   3.073185   0.000898   # C_3
 402 2 7   0.000000  10.976452   2.961047  20.699888   # C_3
 403 2 5   0.000000  12.890170   2.585291   0.902076   # H_
 404 2 5   0.000000  12.891536   2.582470  19.802126   # H_
 405 2 5   0.000000  10.571623   3.486739   0.873309   # H_
 406 2 7   0.000000  10.529257   1.500821   0.004083   # C_3
 407 2 5   0.000000  10.573787   3.480761  19.821640   # H_
 408 2 5   0.000000  10.929057   0.992246   0.889160   # H_
 409 2 5   0.000000  10.933549   0.985172  19.825415   # H_
 410 2 7   0.000000   9.014716   1.376645   0.000644   # C_3
 411 2 7   0.000000  18.562955   7.269241   0.000702   # C_3
 412 2 7   0.000000  20.087896   7.356498  20.699630   # C_3
 413 2 5   0.000000  18.177695   7.761437   0.901710   # H_
 414 2 5   0.000000  18.176256   7.764056  19.802058   # H_
 415 2 5   0.000000  20.483222   6.822943   0.872789   # H_
 416 2 7   0.000000  20.565684   8.806324   0.003494   # C_3
 417 2 5   0.000000  20.481097   6.828622  19.821769   # H_
 418 2 5   0.000000  20.177468   9.323532   0.888632   # H_
 419 2 5   0.000000  20.173282   9.330266  19.824478   # H_
 420 2 7   0.000000   1.382684   8.894916   0.000182   # C_3
 421 2 5   0.000000   1.806098   8.407314   0.884062   # H_
 422 2 5   0.000000   1.700823   9.942200   0.004890   # H_
 423 2 5   0.000000   1.801621   8.416659  19.809550   # H_
 424 2 5   0.000000   8.579892   1.853972   0.884505   # H_
 425 2 5   0.000000   8.721910   0.321911   0.005657   # H_
 426 2 5   0.000000   8.584768   1.844178  19.809677   # H_
 427 1 6   0.000000  17.520819  13.529781  10.350200   # C_2
 428 1 9   0.000000  18.727815  13.878795  10.350200   # O_1
 429 1 9   0.000000  17.171832  12.322777  10.350200   # O_1
 430 1 8   0.000000  16.456806  14.593769  10.350200   # C_R
 431 1 8   0.000000  15.162811  14.166755  10.350200   # C_R
 432 1 5   0.000000  14.930824  13.050752  10.350200   # H_
 433 2 10   0.000000  12.848969  14.801142  10.349270   # O_3
 434 1 8   0.000000  14.167800  15.162743  10.350200   # C_R
 435 1 8   0.000000  14.593785  16.456748  10.350200   # C_R
 436 1 8   0.000000  15.887781  16.882763  10.350200   # C_R
 437 1 8   0.000000  16.883792  15.887774  10.350200   # C_R
 438 2 10   0.000000  18.201886  16.245389  10.349269   # O_3
 439 1 5   0.000000  16.119768  17.998766  10.350200   # H_
 440 1 9   0.000000  13.878760  18.727740  10.350200   # O_1
 441 1 6   0.000000  13.529773  17.520736  10.350200   # C_2
 442 1 9   0.000000  12.322777  17.171723  10.350200   # O_1
 443 2 7   0.000000  12.499541  13.423385  10.351098   # C_3
 444 2 7   0.000000  10.976452  13.311247  10.349688   # C_3
 445 2 5   0.000000  12.890170  12.935491  11.252276   # H_
 446 2 5   0.000000  12.891536  12.932670   9.451926   # H_
 447 2 5   0.000000  10.571623  13.836939  11.223509   # H_
 448 2 7   0.000000  10.529257  11.851021  10.354283   # C_3
 449 2 5   0.000000  10.573787  13.830961   9.471440   # H_
 450 2 5   0.000000  10.929057  11.342446  11.239360   # H_
 451 2 5   0.000000  10.933549  11.335372   9.475215   # H_
 452 2 7   0.000000   9.014716  11.726845  10.350844   # C_3
 453 2 7   0.000000  18.562955  17.619441  10.350902   # C_3
 454 2 7   0.000000  20.087896  17.706698  10.349430   # C_3
 455 2 5   0.000000  18.177695  18.111637  11.251910   # H_
 456 2 5   0.000000  18.176256  18.114256   9.451858   # H_
 457 2 5   0.000000  20.483222  17.173143  11.222989   # H_
 458 2 7   0.000000  20.565684  19.156524  10.353694   # C_3
 459 2 5   0.000000  20.481097  17.178822   9.471569   # H_
 460 2 5   0.000000  20.177468  19.673732  11.238832   # H_
 461 2 5   0.000000  20.173282  19.680466   9.474278   # H_
 462 2 7   0.000000   1.382684  19.245116  10.350382   # C_3
 463 2 5   0.000000   1.806098  18.757514  11.234262   # H_