 (written by mofun)

1496 atoms
864 bonds
1680 angles
2400 dihedrals
0 impropers

10 atom types
5 bond types
9 angle types
10 dihedral types
   0.000000  26.896000 xlo xhi
   0.000000  26.896000 ylo yhi
   0.000000  26.896000 zlo zhi

Masses

 1 91.2240   # Zr3+4
 2 15.9994   # O_3
 3 12.0107   # C_3
 4 1.0079   # H_
 5 1.0079   # H_
 6 12.0107   # C_2
 7 12.0107   # C_3
 8 12.0107   # C_R
 9 14.0067   # N_3
 10 15.9994   # O_1

Pair Coeffs

 1   0.069000   2.783168 # Zr3+4
 2   0.060000   3.118146 # O_3
 3   0.105000   3.430851 # C_3
 4   0.044000   2.571134 # H_
 5 0.044000 2.571134   # H_
 6 0.105000 3.430851   # C_2
 7 0.105000 3.430851   # C_3
 8 0.105000 3.430851   # C_R
 9 0.069000 3.260689   # N_3
 10 0.060000 3.118146   # O_1

Bond Coeffs

 1 560.312976 1.423192   # C_R N_3
 2 527.945261 1.044419   # H_ N_3
 3 528.634538 1.451071   # C_3 N_3
 4 349.795899 1.514000   # C_3 C_3
 5 331.069389 1.109401   # C_3 H_

Angle Coeffs

 1 cosine/periodic  282.369526  -1  3   # C_R C_R N_3
 2 fourier  268.482172  0.317506  0.313225  0.272502   # C_3 N_3 C_R
 3 fourier  150.574599  0.317506  0.313225  0.272502   # C_R N_3 H_
 4 fourier  144.695053  0.317506  0.313225  0.272502   # C_3 N_3 H_
 5 fourier  303.297032  0.343737  0.374972  0.281246   # C_3 C_3 N_3
 6 fourier  169.780468  0.343737  0.374972  0.281246   # H_ C_3 N_3
 7 fourier  117.318683  0.343737  0.374972  0.281246   # C_3 C_3 H_
 8 fourier  75.498766  0.343737  0.374972  0.281246   # H_ C_3 H_
 9 fourier  214.211821  0.343737  0.374972  0.281246   # C_3 C_3 C_3

Dihedral Coeffs

 1 harmonic 3.368555 -1 2   # C_R C_R C_R N_3 M=4
 2 harmonic 3.368555 -1 2   # H_ C_R C_R N_3 M=4
 3 harmonic 0.125000 -1 6   # C_3 N_3 C_R C_R M=4
 4 harmonic 0.125000 -1 6   # C_R C_R N_3 H_ M=4
 5 harmonic 0.081375 1 3   # C_R N_3 C_3 H_ M=6
 6 harmonic 0.081375 1 3   # C_3 C_3 N_3 C_R M=6
 7 harmonic 0.081375 1 3   # H_ C_3 N_3 H_ M=6
 8 harmonic 0.081375 1 3   # C_3 C_3 N_3 H_ M=6
 9 harmonic 0.117722 1 3   # C_3 C_3 C_3 N_3 M=9
 10 harmonic 0.117722 1 3   # C_3 C_3 C_3 H_ M=9

Atoms

 1 1 1   0.000000   2.475508   0.000000   0.000000   # Zr3+4
 2 1 1   0.000000  24.420492   0.000000   0.000000   # Zr3+4
 3 1 1   0.000000   0.000000   2.475508   0.000000   # Zr3+4
 4 1 1   0.000000   0.000000  24.420492   0.000000   # Zr3+4
 5 1 1   0.000000   0.000000   0.000000   2.475508   # Zr3+4
 6 1 1   0.000000   0.000000   0.000000  24.420492   # Zr3+4
 7 1 1   0.000000   2.475508  13.448000  13.448000   # Zr3+4
 8 1 1   0.000000  24.420492  13.448000  13.448000   # Zr3+4
 9 1 1   0.000000   0.000000  15.923508  13.448000   # Zr3+4
 10 1 1   0.000000   0.000000  10.972492  13.448000   # Zr3+4
 11 1 1   0.000000   0.000000  13.448000  15.923508   # Zr3+4
 12 1 1   0.000000   0.000000  13.448000  10.972492   # Zr3+4
 13 1 1   0.000000  15.923508   0.000000  13.448000   # Zr3+4
 14 1 1   0.000000  10.972492   0.000000  13.448000   # Zr3+4
 15 1 1   0.000000  13.448000   2.475508  13.448000   # Zr3+4
 16 1 1   0.000000  13.448000  24.420492  13.448000   # Zr3+4
 17 1 1   0.000000  13.448000   0.000000  15.923508   # Zr3+4
 18 1 1   0.000000  13.448000   0.000000  10.972492   # Zr3+4
 19 1 1   0.000000  15.923508  13.448000   0.000000   # Zr3+4
 20 1 1   0.000000  10.972492  13.448000   0.000000   # Zr3+4
 21 1 1   0.000000  13.448000  15.923508   0.000000   # Zr3+4
 22 1 1   0.000000  13.448000  10.972492   0.000000   # Zr3+4
 23 1 1   0.000000  13.448000  13.448000   2.475508   # Zr3+4
 24 1 1   0.000000  13.448000  13.448000  24.420492   # Zr3+4
 25 1 2   0.000000   1.221078   1.221078   1.221078   # O_3
 26 1 2   0.000000  25.674922  25.674922   1.221078   # O_3
 27 1 2   0.000000  25.674922   1.221078  25.674922   # O_3
 28 1 2   0.000000   1.221078  25.674922  25.674922   # O_3
 29 1 2   0.000000   1.221078   1.221078  25.674922   # O_3
 30 1 2   0.000000  25.674922  25.674922  25.674922   # O_3
 31 1 2   0.000000   1.221078  25.674922   1.221078   # O_3
 32 1 2   0.000000  25.674922   1.221078   1.221078   # O_3
 33 1 2   0.000000   1.221078  14.669078  14.669078   # O_3
 34 1 2   0.000000  25.674922  12.226922  14.669078   # O_3
 35 1 2   0.000000  25.674922  14.669078  12.226922   # O_3
 36 1 2   0.000000   1.221078  12.226922  12.226922   # O_3
 37 1 2   0.000000   1.221078  14.669078  12.226922   # O_3
 38 1 2   0.000000  25.674922  12.226922  12.226922   # O_3
 39 1 2   0.000000   1.221078  12.226922  14.669078   # O_3
 40 1 2   0.000000  25.674922  14.669078  14.669078   # O_3
 41 1 2   0.000000  14.669078   1.221078  14.669078   # O_3
 42 1 2   0.000000  12.226922  25.674922  14.669078   # O_3
 43 1 2   0.000000  12.226922   1.221078  12.226922   # O_3
 44 1 2   0.000000  14.669078  25.674922  12.226922   # O_3
 45 1 2   0.000000  14.669078   1.221078  12.226922   # O_3
 46 1 2   0.000000  12.226922  25.674922  12.226922   # O_3
 47 1 2   0.000000  14.669078  25.674922  14.669078   # O_3
 48 1 2   0.000000  12.226922   1.221078  14.669078   # O_3
 49 1 2   0.000000  14.669078  14.669078   1.221078   # O_3
 50 1 2   0.000000  12.226922  12.226922   1.221078   # O_3
 51 1 2   0.000000  12.226922  14.669078  25.674922   # O_3
 52 1 2   0.000000  14.669078  12.226922  25.674922   # O_3
 53 1 2   0.000000  14.669078  14.669078  25.674922   # O_3
 54 1 2   0.000000  12.226922  12.226922  25.674922   # O_3
 55 1 2   0.000000  14.669078  12.226922   1.221078   # O_3
 56 1 2   0.000000  12.226922  14.669078   1.221078   # O_3
 57 1 10   0.000000   3.566410   0.000000   1.933822   # O_1
 58 1 6   0.000000   3.152211   0.000000   3.152223   # C_2
 59 1 10   0.000000   1.933811  26.896000   3.566424   # O_1
 60 1 8   0.000000   4.209211   0.000000   4.209222   # C_R
 61 1 8   0.000000   5.535211   0.000000   3.891921   # C_R
 62 1 8   0.000000   3.891912   0.000000   5.535222   # C_R
 63 1 8   0.000000   6.508812   0.000000   4.827820   # C_R
 64 1 5   0.000000   5.780010  26.896000   2.996221   # H_
 65 1 8   0.000000   4.827813  26.896000   6.508821   # C_R
 66 1 5   0.000000   2.996212  26.896000   5.780023   # H_
 67 1 8   0.000000   6.204913   0.000000   6.204920   # C_R
 68 1 8   0.000000   7.243114  26.896000   7.243120   # C_R
 69 1 5   0.000000   7.399112   0.000000   4.558920   # H_
 70 1 8   0.000000   8.620213   0.000000   6.939219   # C_R
 71 2 9   0.000000   4.558914   0.000000   7.399122   # N_3
 72 1 8   0.000000   6.939215   0.000000   8.620220   # C_R
 73 1 8   0.000000   9.556114   0.000000   7.912818   # C_R
 74 2 9   0.000000   9.128540   0.212381   5.615332   # N_3
 75 1 8   0.000000   7.912815   0.000000   9.556119   # C_R
 76 1 5   0.000000   6.048915   0.000000   8.889121   # H_
 77 1 8   0.000000   9.238815  26.896000   9.238818   # C_R
 78 1 6   0.000000  10.295816  26.896000  10.295817   # C_2
 79 1 5   0.000000  10.451814   0.000000   7.668017   # H_
 80 1 5   0.000000   7.668016   0.000000  10.451819   # H_
 81 1 10   0.000000  11.514216   0.000000   9.881616   # O_1
 82 1 10   0.000000   9.881617   0.000000  11.514218   # O_1
 83 2 5   0.000000   8.955158   1.200740   5.422409   # H_
 84 2 7   0.000000  10.508651  26.747964   5.269616   # C_3
 85 2 7   0.000000  10.729335  26.695470   3.734197   # C_3
 86 2 7   0.000000  12.226849  26.434291   3.475564   # C_3
 87 2 7   0.000000  10.344631   1.128315   3.061937   # C_3
 88 2 7   0.000000   9.924449  25.546967   3.102604   # C_3
 89 2 5   0.000000  10.872907   1.970493   3.522547   # H_
 90 2 5   0.000000   9.269693   1.324515   3.134277   # H_
 91 2 5   0.000000  10.599805   1.118550   1.996012   # H_
 92 2 5   0.000000  12.846419   0.340423   3.892330   # H_
 93 2 5   0.000000  12.440522  26.373668   2.402351   # H_
 94 2 5   0.000000  12.548938  25.491646   3.932349   # H_
 95 2 5   0.000000  10.171648  24.587280   3.570099   # H_
 96 2 5   0.000000  10.139260  25.458713   2.031383   # H_
 97 2 5   0.000000   8.846786  25.699753   3.204949   # H_
 98 2 5   0.000000  10.759014  25.764833   5.689654   # H_
 99 2 5   0.000000  11.195117   0.593538   5.698721   # H_
 100 2 7   0.000000   3.462055   0.545656   8.238115   # C_3
 101 2 5   0.000000   4.728425  25.997588   7.857758   # H_
 102 2 5   0.000000   2.490484   0.169017   7.887496   # H_
 103 2 7   0.000000   3.410228   2.092545   8.396173   # C_3
 104 2 5   0.000000   3.583003   0.111328   9.241743   # H_
 105 2 7   0.000000   3.155917   2.822446   7.067667   # C_3
 106 2 7   0.000000   4.696201   2.641994   9.032684   # C_3
 107 2 7   0.000000   2.232422   2.415644   9.343066   # C_3
 108 2 5   0.000000   4.012587   2.749170   6.390813   # H_
 109 2 5   0.000000   2.978552   3.891417   7.235371   # H_
 110 2 5   0.000000   2.274807   2.420504   6.555984   # H_
 111 2 5   0.000000   1.282280   2.063038   8.925529   # H_
 112 2 5   0.000000   2.139847   3.494458   9.512494   # H_
 113 2 5   0.000000   2.366067   1.937596  10.320192   # H_
 114 2 5   0.000000   5.553049   2.540575   8.360230   # H_
 115 2 5   0.000000   4.929108   2.122189   9.968521   # H_
 116 2 5   0.000000   4.596153   3.708553   9.265507   # H_
 117 1 10   0.000000  23.329590   0.000000   1.933822   # O_1
 118 1 6   0.000000  23.743789   0.000000   3.152223   # C_2
 119 1 10   0.000000  24.962189   0.000000   3.566424   # O_1
 120 1 8   0.000000  22.686789   0.000000   4.209222   # C_R
 121 1 8   0.000000  21.360789  26.896000   3.891921   # C_R
 122 1 8   0.000000  23.004088   0.000000   5.535222   # C_R
 123 1 8   0.000000  20.387188  26.896000   4.827820   # C_R
 124 1 5   0.000000  21.115990  26.896000   2.996221   # H_
 125 1 8   0.000000  22.068187   0.000000   6.508821   # C_R
 126 1 5   0.000000  23.899788   0.000000   5.780023   # H_
 127 1 8   0.000000  20.691087   0.000000   6.204920   # C_R
 128 1 8   0.000000  19.652886  26.896000   7.243120   # C_R
 129 1 5   0.000000  19.496888  26.896000   4.558920   # H_
 130 1 8   0.000000  18.275787  26.896000   6.939219   # C_R
 131 2 9   0.000000  22.337086   0.000000   7.399122   # N_3
 132 1 8   0.000000  19.956785   0.000000   8.620220   # C_R
 133 1 8   0.000000  17.339886  26.896000   7.912818   # C_R
 134 2 9   0.000000  17.767460  26.683619   5.615332   # N_3
 135 1 8   0.000000  18.983185   0.000000   9.556119   # C_R
 136 1 5   0.000000  20.847085   0.000000   8.889121   # H_
 137 1 8   0.000000  17.657185  26.896000   9.238818   # C_R
 138 1 6   0.000000  16.600184  26.896000  10.295817   # C_2
 139 1 5   0.000000  16.444186  26.896000   7.668017   # H_
 140 1 5   0.000000  19.227984   0.000000  10.451819   # H_
 141 1 10   0.000000  15.381784  26.896000   9.881616   # O_1
 142 1 10   0.000000  17.014383  26.896000  11.514218   # O_1
 143 2 5   0.000000  17.940842  25.695260   5.422409   # H_
 144 2 7   0.000000  16.387349   0.148036   5.269616   # C_3
 145 2 7   0.000000  16.166665   0.200530   3.734197   # C_3
 146 2 7   0.000000  14.669151   0.461709   3.475564   # C_3
 147 2 7   0.000000  16.551369  25.767685   3.061937   # C_3
 148 2 7   0.000000  16.971551   1.349033   3.102604   # C_3
 149 2 5   0.000000  16.023093  24.925507   3.522547   # H_
 150 2 5   0.000000  17.626307  25.571485   3.134277   # H_
 151 2 5   0.000000  16.296195  25.777450   1.996012   # H_
 152 2 5   0.000000  14.049581  26.555577   3.892330   # H_
 153 2 5   0.000000  14.455478   0.522332   2.402351   # H_
 154 2 5   0.000000  14.347062   1.404354   3.932349   # H_
 155 2 5   0.000000  16.724352   2.308720   3.570099   # H_
 156 2 5   0.000000  16.756740   1.437287   2.031383   # H_
 157 2 5   0.000000  18.049214   1.196247   3.204949   # H_
 158 2 5   0.000000  16.136986   1.131167   5.689654   # H_
 159 2 5   0.000000  15.700883  26.302462   5.698721   # H_
 160 2 7   0.000000  23.433945  26.350344   8.238115   # C_3
 161 2 5   0.000000  22.167575   0.898412   7.857758   # H_
 162 2 5   0.000000  24.405516  26.726983   7.887496   # H_
 163 2 7   0.000000  23.485772  24.803455   8.396173   # C_3
 164 2 5   0.000000  23.312997  26.784672   9.241743   # H_
 165 2 7   0.000000  23.740083  24.073554   7.067667   # C_3
 166 2 7   0.000000  22.199799  24.254006   9.032684   # C_3
 167 2 7   0.000000  24.663578  24.480356   9.343066   # C_3
 168 2 5   0.000000  22.883413  24.146830   6.390813   # H_
 169 2 5   0.000000  23.917448  23.004583   7.235371   # H_
 170 2 5   0.000000  24.621193  24.475496   6.555984   # H_
 171 2 5   0.000000  25.613720  24.832962   8.925529   # H_
 172 2 5   0.000000  24.756153  23.401542   9.512494   # H_
 173 2 5   0.000000  24.529933  24.958404  10.320192   # H_
 174 2 5   0.000000  21.342951  24.355425   8.360230   # H_
 175 2 5   0.000000  21.966892  24.773811   9.968521   # H_
 176 2 5   0.000000  22.299847  23.187447   9.265507   # H_
 177 1 10   0.000000  23.329590   0.000000  24.962178   # O_1
 178 1 6   0.000000  23.743789   0.000000  23.743777   # C_2
 179 1 10   0.000000  24.962189   0.000000  23.329576   # O_1
 180 1 8   0.000000  22.686789   0.000000  22.686778   # C_R
 181 1 8   0.000000  21.360789  26.896000  23.004079   # C_R
 182 1 8   0.000000  23.004088   0.000000  21.360778   # C_R
 183 1 8   0.000000  20.387188  26.896000  22.068180   # C_R
 184 1 5   0.000000  21.115990  26.896000  23.899779   # H_
 185 1 8   0.000000  22.068187   0.000000  20.387179   # C_R
 186 1 5   0.000000  23.899788   0.000000  21.115977   # H_
 187 1 8   0.000000  20.691087   0.000000  20.691080   # C_R
 188 1 8   0.000000  19.652886  26.896000  19.652880   # C_R
 189 1 5   0.000000  19.496888  26.896000  22.337080   # H_
 190 1 8   0.000000  18.275787  26.896000  19.956781   # C_R
 191 2 9   0.000000  22.337086   0.000000  19.496878   # N_3
 192 1 8   0.000000  19.956785   0.000000  18.275780   # C_R
 193 1 8   0.000000  17.339886  26.896000  18.983182   # C_R
 194 2 9   0.000000  17.767460   0.212381  21.280668   # N_3
 195 1 8   0.000000  18.983185   0.000000  17.339881   # C_R
 196 1 5   0.000000  20.847085   0.000000  18.006879   # H_
 197 1 8   0.000000  17.657185  26.896000  17.657182   # C_R
 198 1 6   0.000000  16.600184  26.896000  16.600183   # C_2
 199 1 5   0.000000  16.444186  26.896000  19.227983   # H_
 200 1 5   0.000000  19.227984   0.000000  16.444181   # H_
 201 1 10   0.000000  15.381784  26.896000  17.014384   # O_1
 202 1 10   0.000000  17.014383  26.896000  15.381782   # O_1
 203 2 5   0.000000  17.940842   1.200740  21.473591   # H_
 204 2 7   0.000000  16.387349  26.747964  21.626384   # C_3
 205 2 7   0.000000  16.166665  26.695470  23.161803   # C_3
 206 2 7   0.000000  14.669151  26.434291  23.420436   # C_3
 207 2 7   0.000000  16.551369   1.128315  23.834063   # C_3
 208 2 7   0.000000  16.971551  25.546967  23.793396   # C_3
 209 2 5   0.000000  16.023093   1.970493  23.373453   # H_
 210 2 5   0.000000  17.626307   1.324515  23.761723   # H_
 211 2 5   0.000000  16.296195   1.118550  24.899988   # H_
 212 2 5   0.000000  14.049581   0.340423  23.003670   # H_
 213 2 5   0.000000  14.455478  26.373668  24.493649   # H_
 214 2 5   0.000000  14.347062  25.491646  22.963651   # H_
 215 2 5   0.000000  16.724352  24.587280  23.325901   # H_
 216 2 5   0.000000  16.756740  25.458713  24.864617   # H_
 217 2 5   0.000000  18.049214  25.699753  23.691051   # H_
 218 2 5   0.000000  16.136986  25.764833  21.206346   # H_
 219 2 5   0.000000  15.700883   0.593538  21.197279   # H_
 220 2 7   0.000000  23.433945   0.545656  18.657885   # C_3
 221 2 5   0.000000  22.167575  25.997588  19.038242   # H_
 222 2 5   0.000000  24.405516   0.169017  19.008504   # H_
 223 2 7   0.000000  23.485772   2.092545  18.499827   # C_3
 224 2 5   0.000000  23.312997   0.111328  17.654257   # H_
 225 2 7   0.000000  23.740083   2.822446  19.828333   # C_3
 226 2 7   0.000000  22.199799   2.641994  17.863316   # C_3
 227 2 7   0.000000  24.663578   2.415644  17.552934   # C_3
 228 2 5   0.000000  22.883413   2.749170  20.505187   # H_
 229 2 5   0.000000  23.917448   3.891417  19.660629   # H_
 230 2 5   0.000000  24.621193   2.420504  20.340016   # H_
 231 2 5   0.000000  25.613720   2.063038  17.970471   # H_
 232 2 5   0.000000  24.756153   3.494458  17.383506   # H_
 233 2 5   0.000000  24.529933   1.937596  16.575808   # H_
 234 2 5   0.000000  21.342951   2.540575  18.535770   # H_
 235 2 5   0.000000  21.966892   2.122189  16.927479   # H_
 236 2 5   0.000000  22.299847   3.708553  17.630493   # H_
 237 1 10   0.000000   3.566410   0.000000  24.962178   # O_1
 238 1 6   0.000000   3.152211   0.000000  23.743777   # C_2
 239 1 10   0.000000   1.933811   0.000000  23.329576   # O_1
 240 1 8   0.000000   4.209211   0.000000  22.686778   # C_R
 241 1 8   0.000000   5.535211   0.000000  23.004079   # C_R
 242 1 8   0.000000   3.891912   0.000000  21.360778   # C_R
 243 1 8   0.000000   6.508812   0.000000  22.068180   # C_R
 244 1 5   0.000000   5.780010   0.000000  23.899779   # H_
 245 1 8   0.000000   4.827813   0.000000  20.387179   # C_R
 246 1 5   0.000000   2.996212   0.000000  21.115977   # H_
 247 1 8   0.000000   6.204913   0.000000  20.691080   # C_R
 248 1 8   0.000000   7.243114   0.000000  19.652880   # C_R
 249 1 5   0.000000   7.399112   0.000000  22.337080   # H_
 250 1 8   0.000000   8.620213   0.000000  19.956781   # C_R
 251 2 9   0.000000   4.558914   0.000000  19.496878   # N_3
 252 1 8   0.000000   6.939215   0.000000  18.275780   # C_R
 253 1 8   0.000000   9.556114   0.000000  18.983182   # C_R
 254 2 9   0.000000   9.128540  26.683619  21.280668   # N_3
 255 1 8   0.000000   7.912815   0.000000  17.339881   # C_R
 256 1 5   0.000000   6.048915   0.000000  18.006879   # H_
 257 1 8   0.000000   9.238815   0.000000  17.657182   # C_R
 258 1 6   0.000000  10.295816   0.000000  16.600183   # C_2
 259 1 5   0.000000  10.451814   0.000000  19.227983   # H_
 260 1 5   0.000000   7.668016   0.000000  16.444181   # H_
 261 1 10   0.000000  11.514216   0.000000  17.014384   # O_1
 262 1 10   0.000000   9.881617   0.000000  15.381782   # O_1
 263 2 5   0.000000   8.955158  25.695260  21.473591   # H_
 264 2 7   0.000000  10.508651   0.148036  21.626384   # C_3
 265 2 7   0.000000  10.729335   0.200530  23.161803   # C_3
 266 2 7   0.000000  12.226849   0.461709  23.420436   # C_3
 267 2 7   0.000000  10.344631  25.767685  23.834063   # C_3
 268 2 7   0.000000   9.924449   1.349033  23.793396   # C_3
 269 2 5   0.000000  10.872907  24.925507  23.373453   # H_
 270 2 5   0.000000   9.269693  25.571485  23.761723   # H_
 271 2 5   0.000000  10.599805  25.777450  24.899988   # H_
 272 2 5   0.000000  12.846419  26.555577  23.003670   # H_
 273 2 5   0.000000  12.440522   0.522332  24.493649   # H_
 274 2 5   0.000000  12.548938   1.404354  22.963651   # H_
 275 2 5   0.000000  10.171648   2.308720  23.325901   # H_
 276 2 5   0.000000  10.139260   1.437287  24.864617   # H_
 277 2 5   0.000000   8.846786   1.196247  23.691051   # H_
 278 2 5   0.000000  10.759014   1.131167  21.206346   # H_
 279 2 5   0.000000  11.195117  26.302462  21.197279   # H_
 280 2 7   0.000000   3.462055  26.350344  18.657885   # C_3
 281 2 5   0.000000   4.728425   0.898412  19.038242   # H_
 282 2 5   0.000000   2.490484  26.726983  19.008504   # H_
 283 2 7   0.000000   3.410228  24.803455  18.499827   # C_3
 284 2 5   0.000000   3.583003  26.784672  17.654257   # H_
 285 2 7   0.000000   3.155917  24.073554  19.828333   # C_3
 286 2 7   0.000000   4.696201  24.254006  17.863316   # C_3
 287 2 7   0.000000   2.232422  24.480356  17.552934   # C_3
 288 2 5   0.000000   4.012587  24.146830  20.505187   # H_
 289 2 5   0.000000   2.978552  23.004583  19.660629   # H_
 290 2 5   0.000000   2.274807  24.475496  20.340016   # H_
 291 2 5   0.000000   1.282280  24.832962  17.970471   # H_
 292 2 5   0.000000   2.139847  23.401542  17.383506   # H_
 293 2 5   0.000000   2.366067  24.958404  16.575808   # H_
 294 2 5   0.000000   5.553049  24.355425  18.535770   # H_
 295 2 5   0.000000   4.929108  24.773811  16.927479   # H_
 296 2 5   0.000000   4.596153  23.187447  17.630493   # H_
 297 1 10   0.000000   1.933822   3.566410   0.000000   # O_1
 298 1 6   0.000000   3.152223   3.152211   0.000000   # C_2
 299 1 10   0.000000   3.566424   1.933811   0.000000   # O_1
 300 1 8   0.000000   4.209222   4.209211   0.000000   # C_R
 301 1 8   0.000000   3.891921   5.535211  26.896000   # C_R
 302 1 8   0.000000   5.535222   3.891912   0.000000   # C_R
 303 1 8   0.000000   4.827820   6.508812  26.896000   # C_R
 304 1 5   0.000000   2.996221   5.780010  26.896000   # H_
 305 1 8   0.000000   6.508821   4.827813   0.000000   # C_R
 306 1 5   0.000000   5.780023   2.996212   0.000000   # H_
 307 1 8   0.000000   6.204920   6.204913   0.000000   # C_R
 308 1 8   0.000000   7.243120   7.243114  26.896000   # C_R
 309 1 5   0.000000   4.558920   7.399112  26.896000   # H_
 310 1 8   0.000000   6.939219   8.620213  26.896000   # C_R
 311 2 9   0.000000   7.399122   4.558914   0.000000   # N_3
 312 1 8   0.000000   8.620220   6.939215   0.000000   # C_R
 313 1 8   0.000000   7.912818   9.556114  26.896000   # C_R
 314 2 9   0.000000   5.615332   9.128540   0.212381   # N_3
 315 1 8   0.000000   9.556119   7.912815   0.000000   # C_R
 316 1 5   0.000000   8.889121   6.048915   0.000000   # H_
 317 1 8   0.000000   9.238818   9.238815  26.896000   # C_R
 318 1 6   0.000000  10.295817  10.295816  26.896000   # C_2
 319 1 5   0.000000   7.668017  10.451814  26.896000   # H_
 320 1 5   0.000000  10.451819   7.668016   0.000000   # H_
 321 1 10   0.000000   9.881616  11.514216  26.896000   # O_1
 322 1 10   0.000000  11.514218   9.881617  26.896000   # O_1
 323 2 5   0.000000   5.422409   8.955158   1.200740   # H_
 324 2 7   0.000000   5.269616  10.508651  26.747964   # C_3
 325 2 7   0.000000   3.734197  10.729335  26.695470   # C_3
 326 2 7   0.000000   3.475564  12.226849  26.434291   # C_3
 327 2 7   0.000000   3.061937  10.344631   1.128315   # C_3
 328 2 7   0.000000   3.102604   9.924449  25.546967   # C_3
 329 2 5   0.000000   3.522547  10.872907   1.970493   # H_
 330 2 5   0.000000   3.134277   9.269693   1.324515   # H_
 331 2 5   0.000000   1.996012  10.599805   1.118550   # H_
 332 2 5   0.000000   3.892330  12.846419   0.340423   # H_
 333 2 5   0.000000   2.402351  12.440522  26.373668   # H_
 334 2 5   0.000000   3.932349  12.548938  25.491646   # H_
 335 2 5   0.000000   3.570099  10.171648  24.587280   # H_
 336 2 5   0.000000   2.031383  10.139260  25.458713   # H_
 337 2 5   0.000000   3.204949   8.846786  25.699753   # H_
 338 2 5   0.000000   5.689654  10.759014  25.764833   # H_
 339 2 5   0.000000   5.698721  11.195117   0.593538   # H_
 340 2 7   0.000000   8.238115   3.462055   0.545656   # C_3
 341 2 5   0.000000   7.857758   4.728425  25.997588   # H_
 342 2 5   0.000000   7.887496   2.490484   0.169017   # H_
 343 2 7   0.000000   8.396173   3.410228   2.092545   # C_3
 344 2 5   0.000000   9.241743   3.583003   0.111328   # H_
 345 2 7   0.000000   7.067667   3.155917   2.822446   # C_3
 346 2 7   0.000000   9.032684   4.696201   2.641994   # C_3
 347 2 7   0.000000   9.343066   2.232422   2.415644   # C_3
 348 2 5   0.000000   6.390813   4.012587   2.749170   # H_
 349 2 5   0.000000   7.235371   2.978552   3.891417   # H_
 350 2 5   0.000000   6.555984   2.274807   2.420504   # H_
 351 2 5   0.000000   8.925529   1.282280   2.063038   # H_
 352 2 5   0.000000   9.512494   2.139847   3.494458   # H_
 353 2 5   0.000000  10.320192   2.366067   1.937596   # H_
 354 2 5   0.000000   8.360230   5.553049   2.540575   # H_
 355 2 5   0.000000   9.968521   4.929108   2.122189   # H_
 356 2 5   0.000000   9.265507   4.596153   3.708553   # H_
 357 1 10   0.000000   1.933822  23.329590   0.000000   # O_1
 358 1 6   0.000000   3.152223  23.743789   0.000000   # C_2
 359 1 10   0.000000   3.566424  24.962189   0.000000   # O_1
 360 1 8   0.000000   4.209222  22.686789   0.000000   # C_R
 361 1 8   0.000000   3.891921  21.360789   0.000000   # C_R
 362 1 8   0.000000   5.535222  23.004088   0.000000   # C_R
 363 1 8   0.000000   4.827820  20.387188   0.000000   # C_R
 364 1 5   0.000000   2.996221  21.115990   0.000000   # H_
 365 1 8   0.000000   6.508821  22.068187   0.000000   # C_R
 366 1 5   0.000000   5.780023  23.899788   0.000000   # H_
 367 1 8   0.000000   6.204920  20.691087   0.000000   # C_R
 368 1 8   0.000000   7.243120  19.652886   0.000000   # C_R
 369 1 5   0.000000   4.558920  19.496888   0.000000   # H_
 370 1 8   0.000000   6.939219  18.275787   0.000000   # C_R
 371 2 9   0.000000   7.399122  22.337086   0.000000   # N_3
 372 1 8   0.000000   8.620220  19.956785   0.000000   # C_R
 373 1 8   0.000000   7.912818  17.339886   0.000000   # C_R
 374 2 9   0.000000   5.615332  17.767460  26.683619   # N_3
 375 1 8   0.000000   9.556119  18.983185   0.000000   # C_R
 376 1 5   0.000000   8.889121  20.847085   0.000000   # H_
 377 1 8   0.000000   9.238818  17.657185   0.000000   # C_R
 378 1 6   0.000000  10.295817  16.600184   0.000000   # C_2
 379 1 5   0.000000   7.668017  16.444186   0.000000   # H_
 380 1 5   0.000000  10.451819  19.227984   0.000000   # H_
 381 1 10   0.000000   9.881616  15.381784   0.000000   # O_1
 382 1 10   0.000000  11.514218  17.014383   0.000000   # O_1
 383 2 5   0.000000   5.422409  17.940842  25.695260   # H_
 384 2 7   0.000000   5.269616  16.387349   0.148036   # C_3
 385 2 7   0.000000   3.734197  16.166665   0.200530   # C_3
 386 2 7   0.000000   3.475564  14.669151   0.461709   # C_3
 387 2 7   0.000000   3.061937  16.551369  25.767685   # C_3
 388 2 7   0.000000   3.102604  16.971551   1.349033   # C_3
 389 2 5   0.000000   3.522547  16.023093  24.925507   # H_
 390 2 5   0.000000   3.134277  17.626307  25.571485   # H_
 391 2 5   0.000000   1.996012  16.296195  25.777450   # H_
 392 2 5   0.000000   3.892330  14.049581  26.555577   # H_
 393 2 5   0.000000   2.402351  14.455478   0.522332   # H_
 394 2 5   0.000000   3.932349  14.347062   1.404354   # H_
 395 2 5   0.000000   3.570099  16.724352   2.308720   # H_
 396 2 5   0.000000   2.031383  16.756740   1.437287   # H_
 397 2 5   0.000000   3.204949  18.049214   1.196247   # H_
 398 2 5   0.000000   5.689654  16.136986   1.131167   # H_
 399 2 5   0.000000   5.698721  15.700883  26.302462   # H_
 400 2 7   0.000000   8.238115  23.433945  26.350344   # C_3
 401 2 5   0.000000   7.857758  22.167575   0.898412   # H_
 402 2 5   0.000000   7.887496  24.405516  26.726983   # H_
 403 2 7   0.000000   8.396173  23.485772  24.803455   # C_3
 404 2 5   0.000000   9.241743  23.312997  26.784672   # H_
 405 2 7   0.000000   7.067667  23.740083  24.073554   # C_3
 406 2 7   0.000000   9.032684  22.199799  24.254006   # C_3
 407 2 7   0.000000   9.343066  24.663578  24.480356   # C_3
 408 2 5   0.000000   6.390813  22.883413  24.146830   # H_
 409 2 5   0.000000   7.235371  23.917448  23.004583   # H_
 410 2 5   0.000000   6.555984  24.621193  24.475496   # H_
 411 2 5   0.000000   8.925529  25.613720  24.832962   # H_
 412 2 5   0.000000   9.512494  24.756153  23.401542   # H_
 413 2 5   0.000000  10.320192  24.529933  24.958404   # H_
 414 2 5   0.000000   8.360230  21.342951  24.355425   # H_
 415 2 5   0.000000   9.968521  21.966892  24.773811   # H_
 416 2 5   0.000000   9.265507  22.299847  23.187447   # H_
 417 1 10   0.000000  24.962178  23.329590   0.000000   # O_1
 418 1 6   0.000000  23.743777  23.743789   0.000000   # C_2
 419 1 10   0.000000  23.329576  24.962189   0.000000   # O_1
 420 1 8   0.000000  22.686778  22.686789   0.000000   # C_R
 421 1 8   0.000000  23.004079  21.360789  26.896000   # C_R
 422 1 8   0.000000  21.360778  23.004088   0.000000   # C_R
 423 1 8   0.000000  22.068180  20.387188  26.896000   # C_R
 424 1 5   0.000000  23.899779  21.115990  26.896000   # H_
 425 1 8   0.000000  20.387179  22.068187   0.000000   # C_R
 426 1 5   0.000000  21.115977  23.899788   0.000000   # H_
 427 1 8   0.000000  20.691080  20.691087   0.000000   # C_R
 428 1 8   0.000000  19.652880  19.652886  26.896000   # C_R
 429 1 5   0.000000  22.337080  19.496888  26.896000   # H_
 430 1 8   0.000000  19.956781  18.275787  26.896000   # C_R
 431 2 9   0.000000  19.496878  22.337086   0.000000   # N_3
 432 1 8   0.000000  18.275780  19.956785   0.000000   # C_R
 433 1 8   0.000000  18.983182  17.339886  26.896000   # C_R
 434 2 9   0.000000  21.280668  17.767460   0.212381   # N_3
 435 1 8   0.000000  17.339881  18.983185   0.000000   # C_R
 436 1 5   0.000000  18.006879  20.847085   0.000000   # H_
 437 1 8   0.000000  17.657182  17.657185  26.896000   # C_R
 438 1 6   0.000000  16.600183  16.600184  26.896000   # C_2
 439 1 5   0.000000  19.227983  16.444186  26.896000   # H_
 440 1 5   0.000000  16.444181  19.227984   0.000000   # H_
 441 1 10   0.000000  17.014384  15.381784  26.896000   # O_1
 442 1 10   0.000000  15.381782  17.014383   0.000000   # O_1
 443 2 5   0.000000  21.473591  17.940842   1.200740   # H_
 444 2 7   0.000000  21.626384  16.387349  26.747964   # C_3
 445 2 7   0.000000  23.161803  16.166665  26.695470   # C_3
 446 2 7   0.000000  23.420436  14.669151  26.434291   # C_3
 447 2 7   0.000000  23.834063  16.551369   1.128315   # C_3
 448 2 7   0.000000  23.793396  16.971551  25.546967   # C_3
 449 2 5   0.000000  23.373453  16.023093   1.970493   # H_
 450 2 5   0.000000  23.761723  17.626307   1.324515   # H_
 451 2 5   0.000000  24.899988  16.296195   1.118550   # H_
 452 2 5   0.000000  23.003670  14.049581   0.340423   # H_
 453 2 5   0.000000  24.493649  14.455478  26.373668   # H_
 454 2 5   0.000000  22.963651  14.347062  25.491646   # H_
 455 2 5   0.000000  23.325901  16.724352  24.587280   # H_
 456 2 5   0.000000  24.864617  16.756740  25.458713   # H_
 457 2 5   0.000000  23.691051  18.049214  25.699753   # H_
 458 2 5   0.000000  21.206346  16.136986  25.764833   # H_
 459 2 5   0.000000  21.197279  15.700883   0.593538   # H_
 460 2 7   0.000000  18.657885  23.433945   0.545656   # C_3
 461 2 5   0.000000  19.038242  22.167575  25.997588   # H_