 (written by mofun)

680 atoms
192 bonds
384 angles
672 dihedrals
0 impropers

8 atom types
1 bond types
1 angle types
3 dihedral types
   0.000000  26.896000 xlo xhi
   0.000000  26.896000 ylo yhi
   0.000000  26.896000 zlo zhi

Masses

 1 91.2240   # Zr3+4
 2 15.9994   # O_3
 3 12.0107   # C_3
 4 1.0079   # H_
 5 12.0107   # C_2
 6 12.0107   # C_R
 7 15.9994   # O_1
 8 18.9984   # F_

Pair Coeffs

 1   0.069000   2.783168 # Zr3+4
 2   0.060000   3.118146 # O_3
 3   0.105000   3.430851 # C_3
 4   0.044000   2.571134 # H_
 5 0.105000 3.430851   # C_2
 6 0.105000 3.430851   # C_R
 7 0.060000 3.118146   # O_1
 8 0.050000 2.996983   # F_

Bond Coeffs

 1 443.203299 1.354566   # C_R F_

Angle Coeffs

 1 cosine/periodic  207.488907  -1  3   # C_R C_R F_

Dihedral Coeffs

 1 harmonic 3.368555 -1 2   # C_2 C_R C_R F_ M=4
 2 harmonic 3.368555 -1 2   # C_R C_R C_R F_ M=4
 3 harmonic 3.368555 -1 2   # F_ C_R C_R F_ M=4

Atoms

 1 1 1   0.000000   2.475508   0.000000   0.000000   # Zr3+4
 2 1 1   0.000000  24.420492   0.000000   0.000000   # Zr3+4
 3 1 1   0.000000   0.000000   2.475508   0.000000   # Zr3+4
 4 1 1   0.000000   0.000000  24.420492   0.000000   # Zr3+4
 5 1 1   0.000000   0.000000   0.000000   2.475508   # Zr3+4
 6 1 1   0.000000   0.000000   0.000000  24.420492   # Zr3+4
 7 1 1   0.000000   2.475508  13.448000  13.448000   # Zr3+4
 8 1 1   0.000000  24.420492  13.448000  13.448000   # Zr3+4
 9 1 1   0.000000   0.000000  15.923508  13.448000   # Zr3+4
 10 1 1   0.000000   0.000000  10.972492  13.448000   # Zr3+4
 11 1 1   0.000000   0.000000  13.448000  15.923508   # Zr3+4
 12 1 1   0.000000   0.000000  13.448000  10.972492   # Zr3+4
 13 1 1   0.000000  15.923508   0.000000  13.448000   # Zr3+4
 14 1 1   0.000000  10.972492   0.000000  13.448000   # Zr3+4
 15 1 1   0.000000  13.448000   2.475508  13.448000   # Zr3+4
 16 1 1   0.000000  13.448000  24.420492  13.448000   # Zr3+4
 17 1 1   0.000000  13.448000   0.000000  15.923508   # Zr3+4
 18 1 1   0.000000  13.448000   0.000000  10.972492   # Zr3+4
 19 1 1   0.000000  15.923508  13.448000   0.000000   # Zr3+4
 20 1 1   0.000000  10.972492  13.448000   0.000000   # Zr3+4
 21 1 1   0.000000  13.448000  15.923508   0.000000   # Zr3+4
 22 1 1   0.000000  13.448000  10.972492   0.000000   # Zr3+4
 23 1 1   0.000000  13.448000  13.448000   2.475508   # Zr3+4
 24 1 1   0.000000  13.448000  13.448000  24.420492   # Zr3+4
 25 1 2   0.000000   1.221078   1.221078   1.221078   # O_3
 26 1 2   0.000000  25.674922  25.674922   1.221078   # O_3
 27 1 2   0.000000  25.674922   1.221078  25.674922   # O_3
 28 1 2   0.000000   1.221078  25.674922  25.674922   # O_3
 29 1 2   0.000000   1.221078   1.221078  25.674922   # O_3
 30 1 2   0.000000  25.674922  25.674922  25.674922   # O_3
 31 1 2   0.000000   1.221078  25.674922   1.221078   # O_3
 32 1 2   0.000000  25.674922   1.221078   1.221078   # O_3
 33 1 2   0.000000   1.221078  14.669078  14.669078   # O_3
 34 1 2   0.000000  25.674922  12.226922  14.669078   # O_3
 35 1 2   0.000000  25.674922  14.669078  12.226922   # O_3
 36 1 2   0.000000   1.221078  12.226922  12.226922   # O_3
 37 1 2   0.000000   1.221078  14.669078  12.226922   # O_3
 38 1 2   0.000000  25.674922  12.226922  12.226922   # O_3
 39 1 2   0.000000   1.221078  12.226922  14.669078   # O_3
 40 1 2   0.000000  25.674922  14.669078  14.669078   # O_3
 41 1 2   0.000000  14.669078   1.221078  14.669078   # O_3
 42 1 2   0.000000  12.226922  25.674922  14.669078   # O_3
 43 1 2   0.000000  12.226922   1.221078  12.226922   # O_3
 44 1 2   0.000000  14.669078  25.674922  12.226922   # O_3
 45 1 2   0.000000  14.669078   1.221078  12.226922   # O_3
 46 1 2   0.000000  12.226922  25.674922  12.226922   # O_3
 47 1 2   0.000000  14.669078  25.674922  14.669078   # O_3
 48 1 2   0.000000  12.226922   1.221078  14.669078   # O_3
 49 1 2   0.000000  14.669078  14.669078   1.221078   # O_3
 50 1 2   0.000000  12.226922  12.226922   1.221078   # O_3
 51 1 2   0.000000  12.226922  14.669078  25.674922   # O_3
 52 1 2   0.000000  14.669078  12.226922  25.674922   # O_3
 53 1 2   0.000000  14.669078  14.669078  25.674922   # O_3
 54 1 2   0.000000  12.226922  12.226922  25.674922   # O_3
 55 1 2   0.000000  14.669078  12.226922   1.221078   # O_3
 56 1 2   0.000000  12.226922  14.669078   1.221078   # O_3
 57 1 7   0.000000   3.566410   0.000000   1.933822   # O_1
 58 1 5   0.000000   3.152211   0.000000   3.152223   # C_2
 59 1 7   0.000000   1.933811  26.896000   3.566424   # O_1
 60 1 6   0.000000   4.209211   0.000000   4.209222   # C_R
 61 1 6   0.000000   5.535211   0.000000   3.891921   # C_R
 62 1 6   0.000000   3.891912   0.000000   5.535222   # C_R
 63 1 6   0.000000   6.508812   0.000000   4.827820   # C_R
 64 2 8   0.000000   5.949696   0.000000   2.614119   # F_
 65 1 6   0.000000   4.827813  26.896000   6.508821   # C_R
 66 2 8   0.000000   2.614111  26.896000   5.949709   # F_
 67 1 6   0.000000   6.204913   0.000000   6.204920   # C_R
 68 1 6   0.000000   7.243114  26.896000   7.243120   # C_R
 69 2 8   0.000000   7.737907   0.000000   4.312484   # F_
 70 1 6   0.000000   8.620213   0.000000   6.939219   # C_R
 71 2 8   0.000000   4.312479   0.000000   7.737918   # F_
 72 1 6   0.000000   6.939215   0.000000   8.620220   # C_R
 73 1 6   0.000000   9.556114   0.000000   7.912818   # C_R
 74 2 8   0.000000   9.135547   0.000000   5.710122   # F_
 75 1 6   0.000000   7.912815   0.000000   9.556119   # C_R
 76 2 8   0.000000   5.710119   0.000000   9.135556   # F_
 77 1 6   0.000000   9.238815  26.896000   9.238818   # C_R
 78 1 5   0.000000  10.295816  26.896000  10.295817   # C_2
 79 2 8   0.000000  10.833916  26.896000   7.498331   # F_
 80 2 8   0.000000   7.498330   0.000000  10.833921   # F_
 81 1 7   0.000000  11.514216   0.000000   9.881616   # O_1
 82 1 7   0.000000   9.881617   0.000000  11.514218   # O_1
 83 1 7   0.000000  23.329590   0.000000   1.933822   # O_1
 84 1 5   0.000000  23.743789   0.000000   3.152223   # C_2
 85 1 7   0.000000  24.962189   0.000000   3.566424   # O_1
 86 1 6   0.000000  22.686789   0.000000   4.209222   # C_R
 87 1 6   0.000000  21.360789  26.896000   3.891921   # C_R
 88 1 6   0.000000  23.004088   0.000000   5.535222   # C_R
 89 1 6   0.000000  20.387188  26.896000   4.827820   # C_R
 90 2 8   0.000000  20.946304  26.896000   2.614119   # F_
 91 1 6   0.000000  22.068187   0.000000   6.508821   # C_R
 92 2 8   0.000000  24.281889   0.000000   5.949709   # F_
 93 1 6   0.000000  20.691087   0.000000   6.204920   # C_R
 94 1 6   0.000000  19.652886  26.896000   7.243120   # C_R
 95 2 8   0.000000  19.158093  26.896000   4.312484   # F_
 96 1 6   0.000000  18.275787  26.896000   6.939219   # C_R
 97 2 8   0.000000  22.583521   0.000000   7.737918   # F_
 98 1 6   0.000000  19.956785   0.000000   8.620220   # C_R
 99 1 6   0.000000  17.339886  26.896000   7.912818   # C_R
 100 2 8   0.000000  17.760453  26.896000   5.710122   # F_
 101 1 6   0.000000  18.983185   0.000000   9.556119   # C_R
 102 2 8   0.000000  21.185881   0.000000   9.135556   # F_
 103 1 6   0.000000  17.657185  26.896000   9.238818   # C_R
 104 1 5   0.000000  16.600184  26.896000  10.295817   # C_2
 105 2 8   0.000000  16.062084  26.896000   7.498331   # F_
 106 2 8   0.000000  19.397670   0.000000  10.833921   # F_
 107 1 7   0.000000  15.381784  26.896000   9.881616   # O_1
 108 1 7   0.000000  17.014383  26.896000  11.514218   # O_1
 109 1 7   0.000000  23.329590   0.000000  24.962178   # O_1
 110 1 5   0.000000  23.743789   0.000000  23.743777   # C_2
 111 1 7   0.000000  24.962189   0.000000  23.329576   # O_1
 112 1 6   0.000000  22.686789   0.000000  22.686778   # C_R
 113 1 6   0.000000  21.360789  26.896000  23.004079   # C_R
 114 1 6   0.000000  23.004088   0.000000  21.360778   # C_R
 115 1 6   0.000000  20.387188  26.896000  22.068180   # C_R
 116 2 8   0.000000  20.946304  26.896000  24.281881   # F_
 117 1 6   0.000000  22.068187   0.000000  20.387179   # C_R
 118 2 8   0.000000  24.281889   0.000000  20.946291   # F_
 119 1 6   0.000000  20.691087   0.000000  20.691080   # C_R
 120 1 6   0.000000  19.652886  26.896000  19.652880   # C_R
 121 2 8   0.000000  19.158093  26.896000  22.583516   # F_
 122 1 6   0.000000  18.275787  26.896000  19.956781   # C_R
 123 2 8   0.000000  22.583521   0.000000  19.158082   # F_
 124 1 6   0.000000  19.956785   0.000000  18.275780   # C_R
 125 1 6   0.000000  17.339886  26.896000  18.983182   # C_R
 126 2 8   0.000000  17.760453  26.896000  21.185878   # F_
 127 1 6   0.000000  18.983185   0.000000  17.339881   # C_R
 128 2 8   0.000000  21.185881   0.000000  17.760444   # F_
 129 1 6   0.000000  17.657185  26.896000  17.657182   # C_R
 130 1 5   0.000000  16.600184  26.896000  16.600183   # C_2
 131 2 8   0.000000  16.062084  26.896000  19.397669   # F_
 132 2 8   0.000000  19.397670   0.000000  16.062079   # F_
 133 1 7   0.000000  15.381784  26.896000  17.014384   # O_1
 134 1 7   0.000000  17.014383  26.896000  15.381782   # O_1
 135 1 7   0.000000   3.566410   0.000000  24.962178   # O_1
 136 1 5   0.000000   3.152211   0.000000  23.743777   # C_2
 137 1 7   0.000000   1.933811   0.000000  23.329576   # O_1
 138 1 6   0.000000   4.209211   0.000000  22.686778   # C_R
 139 1 6   0.000000   5.535211   0.000000  23.004079   # C_R
 140 1 6   0.000000   3.891912   0.000000  21.360778   # C_R
 141 1 6   0.000000   6.508812   0.000000  22.068180   # C_R
 142 2 8   0.000000   5.949696   0.000000  24.281881   # F_
 143 1 6   0.000000   4.827813   0.000000  20.387179   # C_R
 144 2 8   0.000000   2.614111   0.000000  20.946291   # F_
 145 1 6   0.000000   6.204913   0.000000  20.691080   # C_R
 146 1 6   0.000000   7.243114   0.000000  19.652880   # C_R
 147 2 8   0.000000   7.737907   0.000000  22.583516   # F_
 148 1 6   0.000000   8.620213   0.000000  19.956781   # C_R
 149 2 8   0.000000   4.312479   0.000000  19.158082   # F_
 150 1 6   0.000000   6.939215   0.000000  18.275780   # C_R
 151 1 6   0.000000   9.556114   0.000000  18.983182   # C_R
 152 2 8   0.000000   9.135547   0.000000  21.185878   # F_
 153 1 6   0.000000   7.912815   0.000000  17.339881   # C_R
 154 2 8   0.000000   5.710119   0.000000  17.760444   # F_
 155 1 6   0.000000   9.238815   0.000000  17.657182   # C_R
 156 1 5   0.000000  10.295816   0.000000  16.600183   # C_2
 157 2 8   0.000000  10.833916   0.000000  19.397669   # F_
 158 2 8   0.000000   7.498330   0.000000  16.062079   # F_
 159 1 7   0.000000  11.514216   0.000000  17.014384   # O_1
 160 1 7   0.000000   9.881617   0.000000  15.381782   # O_1
 161 1 7   0.000000   1.933822   3.566410   0.000000   # O_1
 162 1 5   0.000000   3.152223   3.152211   0.000000   # C_2
 163 1 7   0.000000   3.566424   1.933811   0.000000   # O_1
 164 1 6   0.000000   4.209222   4.209211   0.000000   # C_R
 165 1 6   0.000000   3.891921   5.535211  26.896000   # C_R
 166 1 6   0.000000   5.535222   3.891912   0.000000   # C_R
 167 1 6   0.000000   4.827820   6.508812  26.896000   # C_R
 168 2 8   0.000000   2.614119   5.949696  26.896000   # F_
 169 1 6   0.000000   6.508821   4.827813   0.000000   # C_R
 170 2 8   0.000000   5.949709   2.614111   0.000000   # F_
 171 1 6   0.000000   6.204920   6.204913   0.000000   # C_R
 172 1 6   0.000000   7.243120   7.243114  26.896000   # C_R
 173 2 8   0.000000   4.312484   7.737907  26.896000   # F_
 174 1 6   0.000000   6.939219   8.620213  26.896000   # C_R
 175 2 8   0.000000   7.737918   4.312479   0.000000   # F_
 176 1 6   0.000000   8.620220   6.939215   0.000000   # C_R
 177 1 6   0.000000   7.912818   9.556114  26.896000   # C_R
 178 2 8   0.000000   5.710122   9.135547  26.896000   # F_
 179 1 6   0.000000   9.556119   7.912815   0.000000   # C_R
 180 2 8   0.000000   9.135556   5.710119   0.000000   # F_
 181 1 6   0.000000   9.238818   9.238815  26.896000   # C_R
 182 1 5   0.000000  10.295817  10.295816  26.896000   # C_2
 183 2 8   0.000000   7.498331  10.833916  26.896000   # F_
 184 2 8   0.000000  10.833921   7.498330   0.000000   # F_
 185 1 7   0.000000   9.881616  11.514216  26.896000   # O_1
 186 1 7   0.000000  11.514218   9.881617  26.896000   # O_1
 187 1 7   0.000000   1.933822  23.329590   0.000000   # O_1
 188 1 5   0.000000   3.152223  23.743789   0.000000   # C_2
 189 1 7   0.000000   3.566424  24.962189   0.000000   # O_1
 190 1 6   0.000000   4.209222  22.686789   0.000000   # C_R
 191 1 6   0.000000   3.891921  21.360789   0.000000   # C_R
 192 1 6   0.000000   5.535222  23.004088   0.000000   # C_R
 193 1 6   0.000000   4.827820  20.387188   0.000000   # C_R
 194 2 8   0.000000   2.614119  20.946304   0.000000   # F_
 195 1 6   0.000000   6.508821  22.068187   0.000000   # C_R
 196 2 8   0.000000   5.949709  24.281889   0.000000   # F_
 197 1 6   0.000000   6.204920  20.691087   0.000000   # C_R
 198 1 6   0.000000   7.243120  19.652886   0.000000   # C_R
 199 2 8   0.000000   4.312484  19.158093   0.000000   # F_
 200 1 6   0.000000   6.939219  18.275787   0.000000   # C_R
 201 2 8   0.000000   7.737918  22.583521   0.000000   # F_
 202 1 6   0.000000   8.620220  19.956785   0.000000   # C_R
 203 1 6   0.000000   7.912818  17.339886   0.000000   # C_R
 204 2 8   0.000000   5.710122  17.760453   0.000000   # F_
 205 1 6   0.000000   9.556119  18.983185   0.000000   # C_R
 206 2 8   0.000000   9.135556  21.185881   0.000000   # F_
 207 1 6   0.000000   9.238818  17.657185   0.000000   # C_R
 208 1 5   0.000000  10.295817  16.600184   0.000000   # C_2
 209 2 8   0.000000   7.498331  16.062084   0.000000   # F_
 210 2 8   0.000000  10.833921  19.397670   0.000000   # F_
 211 1 7   0.000000   9.881616  15.381784   0.000000   # O_1
 212 1 7   0.000000  11.514218  17.014383   0.000000   # O_1
 213 1 7   0.000000  24.962178  23.329590   0.000000   # O_1
 214 1 5   0.000000  23.743777  23.743789   0.000000   # C_2
 215 1 7   0.000000  23.329576  24.962189   0.000000   # O_1
 216 1 6   0.000000  22.686778  22.686789   0.000000   # C_R
 217 1 6   0.000000  23.004079  21.360789  26.896000   # C_R
 218 1 6   0.000000  21.360778  23.004088   0.000000   # C_R
 219 1 6   0.000000  22.068180  20.387188  26.896000   # C_R
 220 2 8   0.000000  24.281881  20.946304  26.896000   # F_
 221 1 6   0.000000  20.387179  22.068187   0.000000   # C_R
 222 2 8   0.000000  20.946291  24.281889   0.000000   # F_
 223 1 6   0.000000  20.691080  20.691087   0.000000   # C_R
 224 1 6   0.000000  19.652880  19.652886  26.896000   # C_R
 225 2 8   0.000000  22.583516  19.158093  26.896000   # F_
 226 1 6   0.000000  19.956781  18.275787  26.896000   # C_R
 227 2 8   0.000000  19.158082  22.583521   0.000000   # F_
 228 1 6   0.000000  18.275780  19.956785   0.000000   # C_R
 229 1 6   0.000000  18.983182  17.339886  26.896000   # C_R
 230 2 8   0.000000  21.185878  17.760453  26.896000   # F_
 231 1 6   0.000000  17.339881  18.983185   0.000000   # C_R
 232 2 8   0.000000  17.760444  21.185881   0.000000   # F_
 233 1 6   0.000000  17.657182  17.657185  26.896000   # C_R
 234 1 5   0.000000  16.600183  16.600184  26.896000   # C_2
 235 2 8   0.000000  19.397669  16.062084  26.896000   # F_
 236 2 8   0.000000  16.062079  19.397670   0.000000   # F_
 237 1 7   0.000000  17.014384  15.381784  26.896000   # O_1
 238 1 7   0.000000  15.381782  17.014383   0.000000   # O_1
 239 1 7   0.000000  24.962178   3.566410   0.000000   # O_1
 240 1 5   0.000000  23.743777   3.152211   0.000000   # C_2
 241 1 7   0.000000  23.329576   1.933811   0.000000   # O_1
 242 1 6   0.000000  22.686778   4.209211   0.000000   # C_R
 243 1 6   0.000000  23.004079   5.535211   0.000000   # C_R
 244 1 6   0.000000  21.360778   3.891912   0.000000   # C_R
 245 1 6   0.000000  22.068180   6.508812   0.000000   # C_R
 246 2 8   0.000000  24.281881   5.949696   0.000000   # F_
 247 1 6   0.000000  20.387179   4.827813   0.000000   # C_R
 248 2 8   0.000000  20.946291   2.614111   0.000000   # F_
 249 1 6   0.000000  20.691080   6.204913   0.000000   # C_R
 250 1 6   0.000000  19.652880   7.243114   0.000000   # C_R
 251 2 8   0.000000  22.583516   7.737907   0.000000   # F_
 252 1 6   0.000000  19.956781   8.620213   0.000000   # C_R
 253 2 8   0.000000  19.158082   4.312479   0.000000   # F_
 254 1 6   0.000000  18.275780   6.939215   0.000000   # C_R
 255 1 6   0.000000  18.983182   9.556114   0.000000   # C_R
 256 2 8   0.000000  21.185878   9.135547   0.000000   # F_
 257 1 6   0.000000  17.339881   7.912815   0.000000   # C_R
 258 2 8   0.000000  17.760444   5.710119   0.000000   # F_
 259 1 6   0.000000  17.657182   9.238815   0.000000   # C_R
 260 1 5   0.000000  16.600183  10.295816   0.000000   # C_2
 261 2 8   0.000000  19.397669  10.833916   0.000000   # F_
 262 2 8   0.000000  16.062079   7.498330   0.000000   # F_
 263 1 7   0.000000  17.014384  11.514216   0.000000   # O_1
 264 1 7   0.000000  15.381782   9.881617   0.000000   # O_1
 265 1 7   0.000000   0.000000   1.933822   3.566410   # O_1
 266 1 5   0.000000   0.000000   3.152223   3.152211   # C_2
 267 1 7   0.000000   0.000000   3.566424   1.933811   # O_1
 268 1 6   0.000000   0.000000   4.209222   4.209211   # C_R
 269 1 6   0.000000   0.000000   3.891921   5.535211   # C_R
 270 1 6   0.000000   0.000000   5.535222   3.891912   # C_R
 271 1 6   0.000000   0.000000   4.827820   6.508812   # C_R
 272 2 8   0.000000   0.000000   2.614119   5.949696   # F_
 273 1 6   0.000000   0.000000   6.508821   4.827813   # C_R
 274 2 8   0.000000   0.000000   5.949709   2.614111   # F_
 275 1 6   0.000000   0.000000   6.204920   6.204913   # C_R
 276 1 6   0.000000   0.000000   7.243120   7.243114   # C_R
 277 2 8   0.000000   0.000000   4.312484   7.737907   # F_
 278 1 6   0.000000   0.000000   6.939219   8.620213   # C_R
 279 2 8   0.000000   0.000000   7.737918   4.312479   # F_
 280 1 6   0.000000   0.000000   8.620220   6.939215   # C_R
 281 1 6   0.000000   0.000000   7.912818   9.556114   # C_R
 282 2 8   0.000000   0.000000   5.710122   9.135547   # F_
 283 1 6   0.000000   0.000000   9.556119   7.912815   # C_R
 284 2 8   0.000000   0.000000   9.135556   5.710119   # F_
 285 1 6   0.000000   0.000000   9.238818   9.238815   # C_R
 286 1 5   0.000000   0.000000  10.295817  10.295816   # C_2
 287 2 8   0.000000   0.000000   7.498331  10.833916   # F_
 288 2 8   0.000000   0.000000  10.833921   7.498330   # F_
 289 1 7   0.000000   0.000000   9.881616  11.514216   # O_1
 290 1 7   0.000000   0.000000  11.514218   9.881617   # O_1
 291 1 7   0.000000   0.000000   1.933822  23.329590   # O_1
 292 1 5   0.000000   0.000000   3.152223  23.743789   # C_2
 293 1 7   0.000000   0.000000   3.566424  24.962189   # O_1
 294 1 6   0.000000   0.000000   4.209222  22.686789   # C_R
 295 1 6   0.000000   0.000000   3.891921  21.360789   # C_R
 296 1 6   0.000000   0.000000   5.535222  23.004088   # C_R
 297 1 6   0.000000   0.000000   4.827820  20.387188   # C_R
 298 2 8   0.000000   0.000000   2.614119  20.946304   # F_
 299 1 6   0.000000   0.000000   6.508821  22.068187   # C_R
 300 2 8   0.000000   0.000000   5.949709  24.281889   # F_
 301 1 6   0.000000   0.000000   6.204920  20.691087   # C_R
 302 1 6   0.000000   0.000000   7.243120  19.652886   # C_R
 303 2 8   0.000000   0.000000   4.312484  19.158093   # F_
 304 1 6   0.000000   0.000000   6.939219  18.275787   # C_R
 305 2 8   0.000000   0.000000   7.737918  22.583521   # F_
 306 1 6   0.000000   0.000000   8.620220  19.956785   # C_R
 307 1 6   0.000000   0.000000   7.912818  17.339886   # C_R
 308 2 8   0.000000   0.000000   5.710122  17.760453   # F_
 309 1 6   0.000000   0.000000   9.556119  18.983185   # C_R
 310 2 8   0.000000   0.000000   9.135556  21.185881   # F_
 311 1 6   0.000000   0.000000   9.238818  17.657185   # C_R
 312 1 5   0.000000   0.000000  10.295817  16.600184   # C_2
 313 2 8   0.000000   0.000000   7.498331  16.062084   # F_
 314 2 8   0.000000   0.000000  10.833921  19.397670   # F_
 315 1 7   0.000000   0.000000   9.881616  15.381784   # O_1
 316 1 7   0.000000   0.000000  11.514218  17.014383   # O_1
 317 1 7   0.000000   0.000000  24.962178  23.329590   # O_1
 318 1 5   0.000000   0.000000  23.743777  23.743789   # C_2
 319 1 7   0.000000   0.000000  23.329576  24.962189   # O_1
 320 1 6   0.000000   0.000000  22.686778  22.686789   # C_R
 321 1 6   0.000000  26.896000  23.004079  21.360789   # C_R
 322 1 6   0.000000   0.000000  21.360778  23.004088   # C_R
 323 1 6   0.000000  26.896000  22.068180  20.387188   # C_R
 324 2 8   0.000000  26.896000  24.281881  20.946304   # F_
 325 1 6   0.000000   0.000000  20.387179  22.068187   # C_R
 326 2 8   0.000000   0.000000  20.946291  24.281889   # F_
 327 1 6   0.000000   0.000000  20.691080  20.691087   # C_R
 328 1 6   0.000000  26.896000  19.652880  19.652886   # C_R
 329 2 8   0.000000  26.896000  22.583516  19.158093   # F_
 330 1 6   0.000000  26.896000  19.956781  18.275787   # C_R
 331 2 8   0.000000   0.000000  19.158082  22.583521   # F_
 332 1 6   0.000000   0.000000  18.275780  19.956785   # C_R
 333 1 6   0.000000  26.896000  18.983182  17.339886   # C_R
 334 2 8   0.000000  26.896000  21.185878  17.760453   # F_
 335 1 6   0.000000   0.000000  17.339881  18.983185   # C_R
 336 2 8   0.000000   0.000000  17.760444  21.185881   # F_
 337 1 6   0.000000  26.896000  17.657182  17.657185   # C_R
 338 1 5   0.000000  26.896000  16.600183  16.600184   # C_2
 339 2 8   0.000000  26.896000  19.397669  16.062084   # F_
 340 2 8   0.000000   0.000000  16.062079  19.397670   # F_
 341 1 7   0.000000  26.896000  17.014384  15.381784   # O_1
 342 1 7   0.000000   0.000000  15.381782  17.014383   # O_1
 343 1 7   0.000000   0.000000  24.962178   3.566410   # O_1
 344 1 5   0.000000  26.896000  23.743777   3.152211   # C_2
 345 1 7   0.000000  26.896000  23.329576   1.933811   # O_1
 346 1 6   0.000000  26.896000  22.686778   4.209211   # C_R
 347 1 6   0.000000   0.000000  23.004079   5.535211   # C_R
 348 1 6   0.000000  26.896000  21.360778   3.891912   # C_R
 349 1 6   0.000000   0.000000  22.068180   6.508812   # C_R
 350 2 8   0.000000   0.000000  24.281881   5.949696   # F_
 351 1 6   0.000000  26.896000  20.387179   4.827813   # C_R
 352 2 8   0.000000  26.896000  20.946291   2.614111   # F_
 353 1 6   0.000000  26.896000  20.691080   6.204913   # C_R
 354 1 6   0.000000   0.000000  19.652880   7.243114   # C_R
 355 2 8   0.000000   0.000000  22.583516   7.737907   # F_
 356 1 6   0.000000   0.000000  19.956781   8.620213   # C_R
 357 2 8   0.000000  26.896000  19.158082   4.312479   # F_
 358 1 6   0.000000  26.896000  18.275780   6.939215   # C_R
 359 1 6   0.000000   0.000000  18.983182   9.556114   # C_R
 360 2 8   0.000000   0.000000  21.185878   9.135547   # F_
 361 1 6   0.000000  26.896000  17.339881   7.912815   # C_R
 362 2 8   0.000000  26.896000  17.760444   5.710119   # F_
 363 1 6   0.000000   0.000000  17.657182   9.238815   # C_R
 364 1 5   0.000000   0.000000  16.600183  10.295816   # C_2
 365 2 8   0.000000   0.000000  19.397669  10.833916   # F_
 366 2 8   0.000000  26.896000  16.062079   7.498330   # F_
 367 1 7   0.000000   0.000000  17.014384  11.514216   # O_1
 368 1 7   0.000000   0.000000  15.381782   9.881617   # O_1
 369 1 7   0.000000   3.566410  13.448000  15.381822   # O_1
 370 1 5   0.000000   3.152211  13.448000  16.600223   # C_2
 371 1 7   0.000000   1.933811  13.448000  17.014424   # O_1
 372 1 6   0.000000   4.209211  13.448000  17.657222   # C_R
 373 1 6   0.000000   5.535211  13.448000  17.339921   # C_R
 374 1 6   0.000000   3.891912  13.448000  18.983222   # C_R
 375 1 6   0.000000   6.508812  13.448000  18.275820   # C_R
 376 2 8   0.000000   5.949696  13.448000  16.062119   # F_
 377 1 6   0.000000   4.827813  13.448000  19.956821   # C_R
 378 2 8   0.000000   2.614111  13.448000  19.397709   # F_
 379 1 6   0.000000   6.204913  13.448000  19.652920   # C_R
 380 1 6   0.000000   7.243114  13.448000  20.691120   # C_R
 381 2 8   0.000000   7.737907  13.448000  17.760484   # F_
 382 1 6   0.000000   8.620213  13.448000  20.387219   # C_R
 383 2 8   0.000000   4.312479  13.448000  21.185918   # F_
 384 1 6   0.000000   6.939215  13.448000  22.068220   # C_R
 385 1 6   0.000000   9.556114  13.448000  21.360818   # C_R
 386 2 8   0.000000   9.135547  13.448000  19.158122   # F_
 387 1 6   0.000000   7.912815  13.448000  23.004119   # C_R
 388 2 8   0.000000   5.710119  13.448000  22.583556   # F_
 389 1 6   0.000000   9.238815  13.448000  22.686818   # C_R
 390 1 5   0.000000  10.295816  13.448000  23.743817   # C_2
 391 2 8   0.000000  10.833916  13.448000  20.946331   # F_
 392 2 8   0.000000   7.498330  13.448000  24.281921   # F_
 393 1 7   0.000000  11.514216  13.448000  23.329616   # O_1
 394 1 7   0.000000   9.881617  13.448000  24.962218   # O_1
 395 1 7   0.000000  23.329590  13.448000  15.381822   # O_1
 396 1 5   0.000000  23.743789  13.448000  16.600223   # C_2
 397 1 7   0.000000  24.962189  13.448000  17.014424   # O_1
 398 1 6   0.000000  22.686789  13.448000  17.657222   # C_R
 399 1 6   0.000000  21.360789  13.448000  17.339921   # C_R
 400 1 6   0.000000  23.004088  13.448000  18.983222   # C_R
 401 1 6   0.000000  20.387188  13.448000  18.275820   # C_R
 402 2 8   0.000000  20.946304  13.448000  16.062119   # F_
 403 1 6   0.000000  22.068187  13.448000  19.956821   # C_R
 404 2 8   0.000000  24.281889  13.448000  19.397709   # F_
 405 1 6   0.000000  20.691087  13.448000  19.652920   # C_R
 406 1 6   0.000000  19.652886  13.448000  20.691120   # C_R
 407 2 8   0.000000  19.158093  13.448000  17.760484   # F_
 408 1 6   0.000000  18.275787  13.448000  20.387219   # C_R
 409 2 8   0.000000  22.583521  13.448000  21.185918   # F_
 410 1 6   0.000000  19.956785  13.448000  22.068220   # C_R
 411 1 6   0.000000  17.339886  13.448000  21.360818   # C_R
 412 2 8   0.000000  17.760453  13.448000  19.158122   # F_
 413 1 6   0.000000  18.983185  13.448000  23.004119   # C_R
 414 2 8   0.000000  21.185881  13.448000  22.583556   # F_
 415 1 6   0.000000  17.657185  13.448000  22.686818   # C_R
 416 1 5   0.000000  16.600184  13.448000  23.743817   # C_2
 417 2 8   0.000000  16.062084  13.448000  20.946331   # F_
 418 2 8   0.000000  19.397670  13.448000  24.281921   # F_
 419 1 7   0.000000  15.381784  13.448000  23.329616   # O_1
 420 1 7   0.000000  17.014383  13.448000  24.962218   # O_1
 421 1 7   0.000000  23.329590  13.448000  11.514178   # O_1
 422 1 5   0.000000  23.743789  13.448000  10.295777   # C_2
 423 1 7   0.000000  24.962189  13.448000   9.881576   # O_1
 424 1 6   0.000000  22.686789  13.448000   9.238778   # C_R
 425 1 6   0.000000  21.360789  13.448000   9.556079   # C_R
 426 1 6   0.000000  23.004088  13.448000   7.912778   # C_R
 427 1 6   0.000000  20.387188  13.448000   8.620180   # C_R
 428 2 8   0.000000  20.946304  13.448000  10.833881   # F_
 429 1 6   0.000000  22.068187  13.448000   6.939179   # C_R
 430 2 8   0.000000  24.281889  13.448000   7.498291   # F_
 431 1 6   0.000000  20.691087  13.448000   7.243080   # C_R
 432 1 6   0.000000  19.652886  13.448000   6.204880   # C_R
 433 2 8   0.000000  19.158093  13.448000   9.135516   # F_
 434 1 6   0.000000  18.275787  13.448000   6.508781   # C_R
 435 2 8   0.000000  22.583521  13.448000   5.710082   # F_
 436 1 6   0.000000  19.956785  13.448000   4.827780   # C_R
 437 1 6   0.000000  17.339886  13.448000   5.535182   # C_R
 438 2 8   0.000000  17.760453  13.448000   7.737878   # F_
 439 1 6   0.000000  18.983185  13.448000   3.891881   # C_R
 440 2 8   0.000000  21.185881  13.448000   4.312444   # F_
 441 1 6   0.000000  17.657185  13.448000   4.209182   # C_R
 442 1 5   0.000000  16.600184  13.448000   3.152183   # C_2
 443 2 8   0.000000  16.062084  13.448000   5.949669   # F_
 444 2 8   0.000000  19.397670  13.448000   2.614079   # F_
 445 1 7   0.000000  15.381784  13.448000   3.566384   # O_1
 446 1 7   0.000000  17.014383  13.448000   1.933782   # O_1
 447 1 7   0.000000   3.566410  13.448000  11.514178   # O_1
 448 1 5   0.000000   3.152211  13.448000  10.295777   # C_2
 449 1 7   0.000000   1.933811  13.448000   9.881576   # O_1
 450 1 6   0.000000   4.209211  13.448000   9.238778   # C_R
 451 1 6   0.000000   5.535211  13.448000   9.556079   # C_R
 452 1 6   0.000000   3.891912  13.448000   7.912778   # C_R
 453 1 6   0.000000   6.508812  13.448000   8.620180   # C_R
 454 2 8   0.000000   5.949696  13.448000  10.833881   # F_
 455 1 6   0.000000   4.827813  13.448000   6.939179   # C_R
 456 2 8   0.000000   2.614111  13.448000   7.498291   # F_
 457 1 6   0.000000   6.204913  13.448000   7.243080   # C_R
 458 1 6   0.000000   7.243114  13.448000   6.204880   # C_R
 459 2 8   0.000000   7.737907  13.448000   9.135516   # F_
 460 1 6   0.000000   8.620213  13.448000   6.508781   # C_R
 461 2 8   0.000000   4.312479  13.448000   5.710082   # F_
 462 1 6   0.000000   6.939215  13.448000   4.827780   # C_R
 463 1 6   0.000000   9.556114  13.448000   5.535182   # C_R
 464 2 8   0.000000   9.135547  13.448000   7.737878   # F_
 465 1 6   0.000000   7.912815  13.448000   3.891881   # C_R
 466 2 8   0.000000   5.710119  13.448000   4.312444   # F_
 467 1 6   0.000000   9.238815  13.448000   4.209182   # C_R
 468 1 5   0.000000  10.295816  13.448000   3.152183   # C_2
 469 2 8   0.000000  10.833916  13.448000   5.949669   # F_
 470 2 8   0.000000   7.498330  13.448000   2.614079   # F_
 471 1 7   0.000000  11.514216  13.448000   3.566384   # O_1
 472 1 7   0.000000   9.881617  13.448000   1.933782   # O_1
 473 1 7   0.000000   1.933822  17.014410  13.448000   # O_1
 474 1 5   0.000000   3.152223  16.600211  13.448000   # C_2
 475 1 7   0.000000   3.566424  15.381811  13.448000   # O_1
 476 1 6   0.000000   4.209222  17.657211  13.448000   # C_R
 477 1 6   0.000000   3.891921  18.983211  13.448000   # C_R
 478 1 6   0.000000   5.535222  17.339912  13.448000   # C_R
 479 1 6   0.000000   4.827820  19.956812  13.448000   # C_R