 (written by mofun)

1208 atoms
576 bonds
1104 angles
1536 dihedrals
0 impropers

10 atom types
5 bond types
9 angle types
12 dihedral types
   0.000000  26.896000 xlo xhi
   0.000000  26.896000 ylo yhi
   0.000000  26.896000 zlo zhi

Masses

 1 91.2240   # Zr3+4
 2 15.9994   # O_3
 3 12.0107   # C_3
 4 1.0079   # H_
 5 1.0079   # H_
 6 12.0107   # C_2
 7 12.0107   # C_3
 8 12.0107   # C_R
 9 14.0067   # N_3
 10 15.9994   # O_1

Pair Coeffs

 1   0.069000   2.783168 # Zr3+4
 2   0.060000   3.118146 # O_3
 3   0.105000   3.430851 # C_3
 4   0.044000   2.571134 # H_
 5 0.044000 2.571134   # H_
 6 0.105000 3.430851   # C_2
 7 0.105000 3.430851   # C_3
 8 0.105000 3.430851   # C_R
 9 0.069000 3.260689   # N_3
 10 0.060000 3.118146   # O_1

Bond Coeffs

 1 560.312976 1.423192   # C_R N_3
 2 528.634538 1.451071   # C_3 N_3
 3 349.795899 1.514000   # C_3 C_3
 4 527.945261 1.044419   # H_ N_3
 5 331.069389 1.109401   # C_3 H_

Angle Coeffs

 1 cosine/periodic  282.369526  -1  3   # C_R C_R N_3
 2 fourier  268.482172  0.317506  0.313225  0.272502   # C_3 N_3 C_R
 3 fourier  150.574599  0.317506  0.313225  0.272502   # C_R N_3 H_
 4 fourier  144.695053  0.317506  0.313225  0.272502   # C_3 N_3 H_
 5 fourier  303.297032  0.343737  0.374972  0.281246   # C_3 C_3 N_3
 6 fourier  169.780468  0.343737  0.374972  0.281246   # H_ C_3 N_3
 7 fourier  117.318683  0.343737  0.374972  0.281246   # C_3 C_3 H_
 8 fourier  75.498766  0.343737  0.374972  0.281246   # H_ C_3 H_
 9 fourier  214.211821  0.343737  0.374972  0.281246   # C_3 C_3 C_3

Dihedral Coeffs

 1 harmonic 3.368555 -1 2   # C_R C_R C_R N_3 M=4
 2 harmonic 3.368555 -1 2   # H_ C_R C_R N_3 M=4
 3 harmonic 0.125000 -1 6   # C_3 N_3 C_R C_R M=4
 4 harmonic 0.125000 -1 6   # C_R C_R N_3 H_ M=4
 5 harmonic 0.081375 1 3   # C_3 C_3 N_3 C_R M=6
 6 harmonic 0.081375 1 3   # C_R N_3 C_3 H_ M=6
 7 harmonic 0.081375 1 3   # C_3 C_3 N_3 H_ M=6
 8 harmonic 0.081375 1 3   # H_ C_3 N_3 H_ M=6
 9 harmonic 0.117722 1 3   # C_3 C_3 C_3 N_3 M=9
 10 harmonic 0.117722 1 3   # H_ C_3 C_3 N_3 M=9
 11 harmonic 0.117722 1 3   # C_3 C_3 C_3 H_ M=9
 12 harmonic 0.117722 1 3   # H_ C_3 C_3 H_ M=9

Atoms

 1 1 1   0.000000   2.475508   0.000000   0.000000   # Zr3+4
 2 1 1   0.000000  24.420492   0.000000   0.000000   # Zr3+4
 3 1 1   0.000000   0.000000   2.475508   0.000000   # Zr3+4
 4 1 1   0.000000   0.000000  24.420492   0.000000   # Zr3+4
 5 1 1   0.000000   0.000000   0.000000   2.475508   # Zr3+4
 6 1 1   0.000000   0.000000   0.000000  24.420492   # Zr3+4
 7 1 1   0.000000   2.475508  13.448000  13.448000   # Zr3+4
 8 1 1   0.000000  24.420492  13.448000  13.448000   # Zr3+4
 9 1 1   0.000000   0.000000  15.923508  13.448000   # Zr3+4
 10 1 1   0.000000   0.000000  10.972492  13.448000   # Zr3+4
 11 1 1   0.000000   0.000000  13.448000  15.923508   # Zr3+4
 12 1 1   0.000000   0.000000  13.448000  10.972492   # Zr3+4
 13 1 1   0.000000  15.923508   0.000000  13.448000   # Zr3+4
 14 1 1   0.000000  10.972492   0.000000  13.448000   # Zr3+4
 15 1 1   0.000000  13.448000   2.475508  13.448000   # Zr3+4
 16 1 1   0.000000  13.448000  24.420492  13.448000   # Zr3+4
 17 1 1   0.000000  13.448000   0.000000  15.923508   # Zr3+4
 18 1 1   0.000000  13.448000   0.000000  10.972492   # Zr3+4
 19 1 1   0.000000  15.923508  13.448000   0.000000   # Zr3+4
 20 1 1   0.000000  10.972492  13.448000   0.000000   # Zr3+4
 21 1 1   0.000000  13.448000  15.923508   0.000000   # Zr3+4
 22 1 1   0.000000  13.448000  10.972492   0.000000   # Zr3+4
 23 1 1   0.000000  13.448000  13.448000   2.475508   # Zr3+4
 24 1 1   0.000000  13.448000  13.448000  24.420492   # Zr3+4
 25 1 2   0.000000   1.221078   1.221078   1.221078   # O_3
 26 1 2   0.000000  25.674922  25.674922   1.221078   # O_3
 27 1 2   0.000000  25.674922   1.221078  25.674922   # O_3
 28 1 2   0.000000   1.221078  25.674922  25.674922   # O_3
 29 1 2   0.000000   1.221078   1.221078  25.674922   # O_3
 30 1 2   0.000000  25.674922  25.674922  25.674922   # O_3
 31 1 2   0.000000   1.221078  25.674922   1.221078   # O_3
 32 1 2   0.000000  25.674922   1.221078   1.221078   # O_3
 33 1 2   0.000000   1.221078  14.669078  14.669078   # O_3
 34 1 2   0.000000  25.674922  12.226922  14.669078   # O_3
 35 1 2   0.000000  25.674922  14.669078  12.226922   # O_3
 36 1 2   0.000000   1.221078  12.226922  12.226922   # O_3
 37 1 2   0.000000   1.221078  14.669078  12.226922   # O_3
 38 1 2   0.000000  25.674922  12.226922  12.226922   # O_3
 39 1 2   0.000000   1.221078  12.226922  14.669078   # O_3
 40 1 2   0.000000  25.674922  14.669078  14.669078   # O_3
 41 1 2   0.000000  14.669078   1.221078  14.669078   # O_3
 42 1 2   0.000000  12.226922  25.674922  14.669078   # O_3
 43 1 2   0.000000  12.226922   1.221078  12.226922   # O_3
 44 1 2   0.000000  14.669078  25.674922  12.226922   # O_3
 45 1 2   0.000000  14.669078   1.221078  12.226922   # O_3
 46 1 2   0.000000  12.226922  25.674922  12.226922   # O_3
 47 1 2   0.000000  14.669078  25.674922  14.669078   # O_3
 48 1 2   0.000000  12.226922   1.221078  14.669078   # O_3
 49 1 2   0.000000  14.669078  14.669078   1.221078   # O_3
 50 1 2   0.000000  12.226922  12.226922   1.221078   # O_3
 51 1 2   0.000000  12.226922  14.669078  25.674922   # O_3
 52 1 2   0.000000  14.669078  12.226922  25.674922   # O_3
 53 1 2   0.000000  14.669078  14.669078  25.674922   # O_3
 54 1 2   0.000000  12.226922  12.226922  25.674922   # O_3
 55 1 2   0.000000  14.669078  12.226922   1.221078   # O_3
 56 1 2   0.000000  12.226922  14.669078   1.221078   # O_3
 57 1 10   0.000000   3.566410   0.000000   1.933822   # O_1
 58 1 6   0.000000   3.152211   0.000000   3.152223   # C_2
 59 1 10   0.000000   1.933811  26.896000   3.566424   # O_1
 60 1 8   0.000000   4.209211   0.000000   4.209222   # C_R
 61 1 8   0.000000   5.535211   0.000000   3.891921   # C_R
 62 1 8   0.000000   3.891912   0.000000   5.535222   # C_R
 63 1 8   0.000000   6.508812   0.000000   4.827820   # C_R
 64 1 5   0.000000   5.780010  26.896000   2.996221   # H_
 65 1 8   0.000000   4.827813  26.896000   6.508821   # C_R
 66 1 5   0.000000   2.996212  26.896000   5.780023   # H_
 67 1 8   0.000000   6.204913   0.000000   6.204920   # C_R
 68 1 8   0.000000   7.243114  26.896000   7.243120   # C_R
 69 1 5   0.000000   7.399112   0.000000   4.558920   # H_
 70 1 8   0.000000   8.620213   0.000000   6.939219   # C_R
 71 2 9   0.000000   4.289180   0.360643   7.812716   # N_3
 72 1 8   0.000000   6.939215   0.000000   8.620220   # C_R
 73 1 8   0.000000   9.556114   0.000000   7.912818   # C_R
 74 2 9   0.000000   9.187219  26.793559   5.619098   # N_3
 75 1 8   0.000000   7.912815   0.000000   9.556119   # C_R
 76 1 5   0.000000   6.048915   0.000000   8.889121   # H_
 77 1 8   0.000000   9.238815  26.896000   9.238818   # C_R
 78 1 6   0.000000  10.295816  26.896000  10.295817   # C_2
 79 1 5   0.000000  10.451814   0.000000   7.668017   # H_
 80 1 5   0.000000   7.668016   0.000000  10.451819   # H_
 81 1 10   0.000000  11.514216   0.000000   9.881616   # O_1
 82 1 10   0.000000   9.881617   0.000000  11.514218   # O_1
 83 2 7   0.000000   9.573305  25.404292   5.320132   # C_3
 84 2 7   0.000000   3.910072   1.793107   7.799593   # C_3
 85 2 7   0.000000  10.114892  25.310559   3.890932   # C_3
 86 2 7   0.000000   3.758657   2.332028   9.223227   # C_3
 87 2 5   0.000000   3.440684  26.704628   7.939580   # H_
 88 2 5   0.000000  10.016343   0.490334   5.608772   # H_
 89 2 7   0.000000   5.030663   2.992430   9.735677   # C_3
 90 2 5   0.000000   4.632613   2.402536   7.241554   # H_
 91 2 5   0.000000   8.699570  24.746604   5.404411   # H_
 92 2 5   0.000000   5.847656   2.275681   9.827304   # H_
 93 2 5   0.000000   4.857667   3.431003  10.723325   # H_
 94 2 5   0.000000   5.353101   3.795785   9.064632   # H_
 95 2 7   0.000000  11.444052  26.031578   3.706262   # C_3
 96 2 5   0.000000  11.335663   0.216895   3.834592   # H_
 97 2 5   0.000000  11.830654  25.855751   2.697319   # H_
 98 2 5   0.000000  12.189890  25.672410   4.422454   # H_
 99 2 5   0.000000  10.335423  25.041867   6.021013   # H_
 100 2 5   0.000000   2.937863   1.892750   7.299368   # H_
 101 2 5   0.000000   9.383671  25.715084   3.181298   # H_
 102 2 5   0.000000  10.256995  24.252817   3.640127   # H_
 103 2 5   0.000000   3.441828   1.544272   9.915910   # H_
 104 2 5   0.000000   2.971630   3.096122   9.222706   # H_
 105 1 10   0.000000  23.329590   0.000000   1.933822   # O_1
 106 1 6   0.000000  23.743789   0.000000   3.152223   # C_2
 107 1 10   0.000000  24.962189   0.000000   3.566424   # O_1
 108 1 8   0.000000  22.686789   0.000000   4.209222   # C_R
 109 1 8   0.000000  21.360789  26.896000   3.891921   # C_R
 110 1 8   0.000000  23.004088   0.000000   5.535222   # C_R
 111 1 8   0.000000  20.387188  26.896000   4.827820   # C_R
 112 1 5   0.000000  21.115990  26.896000   2.996221   # H_
 113 1 8   0.000000  22.068187   0.000000   6.508821   # C_R
 114 1 5   0.000000  23.899788   0.000000   5.780023   # H_
 115 1 8   0.000000  20.691087   0.000000   6.204920   # C_R
 116 1 8   0.000000  19.652886  26.896000   7.243120   # C_R
 117 1 5   0.000000  19.496888  26.896000   4.558920   # H_
 118 1 8   0.000000  18.275787  26.896000   6.939219   # C_R
 119 2 9   0.000000  22.606820  26.535357   7.812716   # N_3
 120 1 8   0.000000  19.956785   0.000000   8.620220   # C_R
 121 1 8   0.000000  17.339886  26.896000   7.912818   # C_R
 122 2 9   0.000000  17.708781   0.102441   5.619098   # N_3
 123 1 8   0.000000  18.983185   0.000000   9.556119   # C_R
 124 1 5   0.000000  20.847085   0.000000   8.889121   # H_
 125 1 8   0.000000  17.657185  26.896000   9.238818   # C_R
 126 1 6   0.000000  16.600184  26.896000  10.295817   # C_2
 127 1 5   0.000000  16.444186  26.896000   7.668017   # H_
 128 1 5   0.000000  19.227984   0.000000  10.451819   # H_
 129 1 10   0.000000  15.381784  26.896000   9.881616   # O_1
 130 1 10   0.000000  17.014383  26.896000  11.514218   # O_1
 131 2 7   0.000000  17.322695   1.491708   5.320132   # C_3
 132 2 7   0.000000  22.985928  25.102893   7.799593   # C_3
 133 2 7   0.000000  16.781108   1.585441   3.890932   # C_3
 134 2 7   0.000000  23.137343  24.563972   9.223227   # C_3
 135 2 5   0.000000  23.455316   0.191372   7.939580   # H_
 136 2 5   0.000000  16.879657  26.405666   5.608772   # H_
 137 2 7   0.000000  21.865337  23.903570   9.735677   # C_3
 138 2 5   0.000000  22.263387  24.493464   7.241554   # H_
 139 2 5   0.000000  18.196430   2.149396   5.404411   # H_
 140 2 5   0.000000  21.048344  24.620319   9.827304   # H_
 141 2 5   0.000000  22.038333  23.464997  10.723325   # H_
 142 2 5   0.000000  21.542899  23.100215   9.064632   # H_
 143 2 7   0.000000  15.451948   0.864422   3.706262   # C_3
 144 2 5   0.000000  15.560337  26.679105   3.834592   # H_
 145 2 5   0.000000  15.065346   1.040249   2.697319   # H_
 146 2 5   0.000000  14.706110   1.223590   4.422454   # H_
 147 2 5   0.000000  16.560577   1.854133   6.021013   # H_
 148 2 5   0.000000  23.958137  25.003250   7.299368   # H_
 149 2 5   0.000000  17.512329   1.180916   3.181298   # H_
 150 2 5   0.000000  16.639005   2.643183   3.640127   # H_
 151 2 5   0.000000  23.454172  25.351728   9.915910   # H_
 152 2 5   0.000000  23.924370  23.799878   9.222706   # H_
 153 1 10   0.000000  23.329590   0.000000  24.962178   # O_1
 154 1 6   0.000000  23.743789   0.000000  23.743777   # C_2
 155 1 10   0.000000  24.962189   0.000000  23.329576   # O_1
 156 1 8   0.000000  22.686789   0.000000  22.686778   # C_R
 157 1 8   0.000000  21.360789  26.896000  23.004079   # C_R
 158 1 8   0.000000  23.004088   0.000000  21.360778   # C_R
 159 1 8   0.000000  20.387188  26.896000  22.068180   # C_R
 160 1 5   0.000000  21.115990  26.896000  23.899779   # H_
 161 1 8   0.000000  22.068187   0.000000  20.387179   # C_R
 162 1 5   0.000000  23.899788   0.000000  21.115977   # H_
 163 1 8   0.000000  20.691087   0.000000  20.691080   # C_R
 164 1 8   0.000000  19.652886  26.896000  19.652880   # C_R
 165 1 5   0.000000  19.496888  26.896000  22.337080   # H_
 166 1 8   0.000000  18.275787  26.896000  19.956781   # C_R
 167 2 9   0.000000  22.606820   0.360643  19.083284   # N_3
 168 1 8   0.000000  19.956785   0.000000  18.275780   # C_R
 169 1 8   0.000000  17.339886  26.896000  18.983182   # C_R
 170 2 9   0.000000  17.708781  26.793559  21.276902   # N_3
 171 1 8   0.000000  18.983185   0.000000  17.339881   # C_R
 172 1 5   0.000000  20.847085   0.000000  18.006879   # H_
 173 1 8   0.000000  17.657185  26.896000  17.657182   # C_R
 174 1 6   0.000000  16.600184  26.896000  16.600183   # C_2
 175 1 5   0.000000  16.444186  26.896000  19.227983   # H_
 176 1 5   0.000000  19.227984   0.000000  16.444181   # H_
 177 1 10   0.000000  15.381784  26.896000  17.014384   # O_1
 178 1 10   0.000000  17.014383  26.896000  15.381782   # O_1
 179 2 7   0.000000  17.322695  25.404292  21.575868   # C_3
 180 2 7   0.000000  22.985928   1.793107  19.096407   # C_3
 181 2 7   0.000000  16.781108  25.310559  23.005068   # C_3
 182 2 7   0.000000  23.137343   2.332028  17.672773   # C_3
 183 2 5   0.000000  23.455316  26.704628  18.956420   # H_
 184 2 5   0.000000  16.879657   0.490334  21.287228   # H_
 185 2 7   0.000000  21.865337   2.992430  17.160323   # C_3
 186 2 5   0.000000  22.263387   2.402536  19.654446   # H_
 187 2 5   0.000000  18.196430  24.746604  21.491589   # H_
 188 2 5   0.000000  21.048344   2.275681  17.068696   # H_
 189 2 5   0.000000  22.038333   3.431003  16.172675   # H_
 190 2 5   0.000000  21.542899   3.795785  17.831368   # H_
 191 2 7   0.000000  15.451948  26.031578  23.189738   # C_3
 192 2 5   0.000000  15.560337   0.216895  23.061408   # H_
 193 2 5   0.000000  15.065346  25.855751  24.198681   # H_
 194 2 5   0.000000  14.706110  25.672410  22.473546   # H_
 195 2 5   0.000000  16.560577  25.041867  20.874987   # H_
 196 2 5   0.000000  23.958137   1.892750  19.596632   # H_
 197 2 5   0.000000  17.512329  25.715084  23.714702   # H_
 198 2 5   0.000000  16.639005  24.252817  23.255873   # H_
 199 2 5   0.000000  23.454172   1.544272  16.980090   # H_
 200 2 5   0.000000  23.924370   3.096122  17.673294   # H_
 201 1 10   0.000000   3.566410   0.000000  24.962178   # O_1
 202 1 6   0.000000   3.152211   0.000000  23.743777   # C_2
 203 1 10   0.000000   1.933811   0.000000  23.329576   # O_1
 204 1 8   0.000000   4.209211   0.000000  22.686778   # C_R
 205 1 8   0.000000   5.535211   0.000000  23.004079   # C_R
 206 1 8   0.000000   3.891912   0.000000  21.360778   # C_R
 207 1 8   0.000000   6.508812   0.000000  22.068180   # C_R
 208 1 5   0.000000   5.780010   0.000000  23.899779   # H_
 209 1 8   0.000000   4.827813   0.000000  20.387179   # C_R
 210 1 5   0.000000   2.996212   0.000000  21.115977   # H_
 211 1 8   0.000000   6.204913   0.000000  20.691080   # C_R
 212 1 8   0.000000   7.243114   0.000000  19.652880   # C_R
 213 1 5   0.000000   7.399112   0.000000  22.337080   # H_
 214 1 8   0.000000   8.620213   0.000000  19.956781   # C_R
 215 2 9   0.000000   4.289180  26.535357  19.083284   # N_3
 216 1 8   0.000000   6.939215   0.000000  18.275780   # C_R
 217 1 8   0.000000   9.556114   0.000000  18.983182   # C_R
 218 2 9   0.000000   9.187219   0.102441  21.276902   # N_3
 219 1 8   0.000000   7.912815   0.000000  17.339881   # C_R
 220 1 5   0.000000   6.048915   0.000000  18.006879   # H_
 221 1 8   0.000000   9.238815   0.000000  17.657182   # C_R
 222 1 6   0.000000  10.295816   0.000000  16.600183   # C_2
 223 1 5   0.000000  10.451814   0.000000  19.227983   # H_
 224 1 5   0.000000   7.668016   0.000000  16.444181   # H_
 225 1 10   0.000000  11.514216   0.000000  17.014384   # O_1
 226 1 10   0.000000   9.881617   0.000000  15.381782   # O_1
 227 2 7   0.000000   9.573305   1.491708  21.575868   # C_3
 228 2 7   0.000000   3.910072  25.102893  19.096407   # C_3
 229 2 7   0.000000  10.114892   1.585441  23.005068   # C_3
 230 2 7   0.000000   3.758657  24.563972  17.672773   # C_3
 231 2 5   0.000000   3.440684   0.191372  18.956420   # H_
 232 2 5   0.000000  10.016343  26.405666  21.287228   # H_
 233 2 7   0.000000   5.030663  23.903570  17.160323   # C_3
 234 2 5   0.000000   4.632613  24.493464  19.654446   # H_
 235 2 5   0.000000   8.699570   2.149396  21.491589   # H_
 236 2 5   0.000000   5.847656  24.620319  17.068696   # H_
 237 2 5   0.000000   4.857667  23.464997  16.172675   # H_
 238 2 5   0.000000   5.353101  23.100215  17.831368   # H_
 239 2 7   0.000000  11.444052   0.864422  23.189738   # C_3
 240 2 5   0.000000  11.335663  26.679105  23.061408   # H_
 241 2 5   0.000000  11.830654   1.040249  24.198681   # H_
 242 2 5   0.000000  12.189890   1.223590  22.473546   # H_
 243 2 5   0.000000  10.335423   1.854133  20.874987   # H_
 244 2 5   0.000000   2.937863  25.003250  19.596632   # H_
 245 2 5   0.000000   9.383671   1.180916  23.714702   # H_
 246 2 5   0.000000  10.256995   2.643183  23.255873   # H_
 247 2 5   0.000000   3.441828  25.351728  16.980090   # H_
 248 2 5   0.000000   2.971630  23.799878  17.673294   # H_
 249 1 10   0.000000   1.933822   3.566410   0.000000   # O_1
 250 1 6   0.000000   3.152223   3.152211   0.000000   # C_2
 251 1 10   0.000000   3.566424   1.933811   0.000000   # O_1
 252 1 8   0.000000   4.209222   4.209211   0.000000   # C_R
 253 1 8   0.000000   3.891921   5.535211  26.896000   # C_R
 254 1 8   0.000000   5.535222   3.891912   0.000000   # C_R
 255 1 8   0.000000   4.827820   6.508812  26.896000   # C_R
 256 1 5   0.000000   2.996221   5.780010  26.896000   # H_
 257 1 8   0.000000   6.508821   4.827813   0.000000   # C_R
 258 1 5   0.000000   5.780023   2.996212   0.000000   # H_
 259 1 8   0.000000   6.204920   6.204913   0.000000   # C_R
 260 1 8   0.000000   7.243120   7.243114  26.896000   # C_R
 261 1 5   0.000000   4.558920   7.399112  26.896000   # H_
 262 1 8   0.000000   6.939219   8.620213  26.896000   # C_R
 263 2 9   0.000000   7.812716   4.289180   0.360643   # N_3
 264 1 8   0.000000   8.620220   6.939215   0.000000   # C_R
 265 1 8   0.000000   7.912818   9.556114  26.896000   # C_R
 266 2 9   0.000000   5.619098   9.187219  26.793559   # N_3
 267 1 8   0.000000   9.556119   7.912815   0.000000   # C_R
 268 1 5   0.000000   8.889121   6.048915   0.000000   # H_
 269 1 8   0.000000   9.238818   9.238815  26.896000   # C_R
 270 1 6   0.000000  10.295817  10.295816  26.896000   # C_2
 271 1 5   0.000000   7.668017  10.451814  26.896000   # H_
 272 1 5   0.000000  10.451819   7.668016   0.000000   # H_
 273 1 10   0.000000   9.881616  11.514216  26.896000   # O_1
 274 1 10   0.000000  11.514218   9.881617  26.896000   # O_1
 275 2 7   0.000000   5.320132   9.573305  25.404292   # C_3
 276 2 7   0.000000   7.799593   3.910072   1.793107   # C_3
 277 2 7   0.000000   3.890932  10.114892  25.310559   # C_3
 278 2 7   0.000000   9.223227   3.758657   2.332028   # C_3
 279 2 5   0.000000   7.939580   3.440684  26.704628   # H_
 280 2 5   0.000000   5.608772  10.016343   0.490334   # H_
 281 2 7   0.000000   9.735677   5.030663   2.992430   # C_3
 282 2 5   0.000000   7.241554   4.632613   2.402536   # H_
 283 2 5   0.000000   5.404411   8.699570  24.746604   # H_
 284 2 5   0.000000   9.827304   5.847656   2.275681   # H_
 285 2 5   0.000000  10.723325   4.857667   3.431003   # H_
 286 2 5   0.000000   9.064632   5.353101   3.795785   # H_
 287 2 7   0.000000   3.706262  11.444052  26.031578   # C_3
 288 2 5   0.000000   3.834592  11.335663   0.216895   # H_
 289 2 5   0.000000   2.697319  11.830654  25.855751   # H_
 290 2 5   0.000000   4.422454  12.189890  25.672410   # H_
 291 2 5   0.000000   6.021013  10.335423  25.041867   # H_
 292 2 5   0.000000   7.299368   2.937863   1.892750   # H_
 293 2 5   0.000000   3.181298   9.383671  25.715084   # H_
 294 2 5   0.000000   3.640127  10.256995  24.252817   # H_
 295 2 5   0.000000   9.915910   3.441828   1.544272   # H_
 296 2 5   0.000000   9.222706   2.971630   3.096122   # H_
 297 1 10   0.000000   1.933822  23.329590   0.000000   # O_1
 298 1 6   0.000000   3.152223  23.743789   0.000000   # C_2
 299 1 10   0.000000   3.566424  24.962189   0.000000   # O_1
 300 1 8   0.000000   4.209222  22.686789   0.000000   # C_R
 301 1 8   0.000000   3.891921  21.360789   0.000000   # C_R
 302 1 8   0.000000   5.535222  23.004088   0.000000   # C_R
 303 1 8   0.000000   4.827820  20.387188   0.000000   # C_R
 304 1 5   0.000000   2.996221  21.115990   0.000000   # H_
 305 1 8   0.000000   6.508821  22.068187   0.000000   # C_R
 306 1 5   0.000000   5.780023  23.899788   0.000000   # H_
 307 1 8   0.000000   6.204920  20.691087   0.000000   # C_R
 308 1 8   0.000000   7.243120  19.652886   0.000000   # C_R
 309 1 5   0.000000   4.558920  19.496888   0.000000   # H_
 310 1 8   0.000000   6.939219  18.275787   0.000000   # C_R
 311 2 9   0.000000   7.812716  22.606820  26.535357   # N_3
 312 1 8   0.000000   8.620220  19.956785   0.000000   # C_R
 313 1 8   0.000000   7.912818  17.339886   0.000000   # C_R
 314 2 9   0.000000   5.619098  17.708781   0.102441   # N_3
 315 1 8   0.000000   9.556119  18.983185   0.000000   # C_R
 316 1 5   0.000000   8.889121  20.847085   0.000000   # H_
 317 1 8   0.000000   9.238818  17.657185   0.000000   # C_R
 318 1 6   0.000000  10.295817  16.600184   0.000000   # C_2
 319 1 5   0.000000   7.668017  16.444186   0.000000   # H_
 320 1 5   0.000000  10.451819  19.227984   0.000000   # H_
 321 1 10   0.000000   9.881616  15.381784   0.000000   # O_1
 322 1 10   0.000000  11.514218  17.014383   0.000000   # O_1
 323 2 7   0.000000   5.320132  17.322695   1.491708   # C_3
 324 2 7   0.000000   7.799593  22.985928  25.102893   # C_3
 325 2 7   0.000000   3.890932  16.781108   1.585441   # C_3
 326 2 7   0.000000   9.223227  23.137343  24.563972   # C_3
 327 2 5   0.000000   7.939580  23.455316   0.191372   # H_
 328 2 5   0.000000   5.608772  16.879657  26.405666   # H_
 329 2 7   0.000000   9.735677  21.865337  23.903570   # C_3
 330 2 5   0.000000   7.241554  22.263387  24.493464   # H_
 331 2 5   0.000000   5.404411  18.196430   2.149396   # H_
 332 2 5   0.000000   9.827304  21.048344  24.620319   # H_
 333 2 5   0.000000  10.723325  22.038333  23.464997   # H_
 334 2 5   0.000000   9.064632  21.542899  23.100215   # H_
 335 2 7   0.000000   3.706262  15.451948   0.864422   # C_3
 336 2 5   0.000000   3.834592  15.560337  26.679105   # H_
 337 2 5   0.000000   2.697319  15.065346   1.040249   # H_
 338 2 5   0.000000   4.422454  14.706110   1.223590   # H_
 339 2 5   0.000000   6.021013  16.560577   1.854133   # H_
 340 2 5   0.000000   7.299368  23.958137  25.003250   # H_
 341 2 5   0.000000   3.181298  17.512329   1.180916   # H_
 342 2 5   0.000000   3.640127  16.639005   2.643183   # H_
 343 2 5   0.000000   9.915910  23.454172  25.351728   # H_
 344 2 5   0.000000   9.222706  23.924370  23.799878   # H_
 345 1 10   0.000000  24.962178  23.329590   0.000000   # O_1
 346 1 6   0.000000  23.743777  23.743789   0.000000   # C_2
 347 1 10   0.000000  23.329576  24.962189   0.000000   # O_1
 348 1 8   0.000000  22.686778  22.686789   0.000000   # C_R
 349 1 8   0.000000  23.004079  21.360789  26.896000   # C_R
 350 1 8   0.000000  21.360778  23.004088   0.000000   # C_R
 351 1 8   0.000000  22.068180  20.387188  26.896000   # C_R
 352 1 5   0.000000  23.899779  21.115990  26.896000   # H_
 353 1 8   0.000000  20.387179  22.068187   0.000000   # C_R
 354 1 5   0.000000  21.115977  23.899788   0.000000   # H_
 355 1 8   0.000000  20.691080  20.691087   0.000000   # C_R
 356 1 8   0.000000  19.652880  19.652886  26.896000   # C_R
 357 1 5   0.000000  22.337080  19.496888  26.896000   # H_
 358 1 8   0.000000  19.956781  18.275787  26.896000   # C_R
 359 2 9   0.000000  19.083284  22.606820   0.360643   # N_3
 360 1 8   0.000000  18.275780  19.956785   0.000000   # C_R
 361 1 8   0.000000  18.983182  17.339886  26.896000   # C_R
 362 2 9   0.000000  21.276902  17.708781  26.793559   # N_3
 363 1 8   0.000000  17.339881  18.983185   0.000000   # C_R
 364 1 5   0.000000  18.006879  20.847085   0.000000   # H_
 365 1 8   0.000000  17.657182  17.657185  26.896000   # C_R
 366 1 6   0.000000  16.600183  16.600184  26.896000   # C_2
 367 1 5   0.000000  19.227983  16.444186  26.896000   # H_
 368 1 5   0.000000  16.444181  19.227984   0.000000   # H_
 369 1 10   0.000000  17.014384  15.381784  26.896000   # O_1
 370 1 10   0.000000  15.381782  17.014383   0.000000   # O_1
 371 2 7   0.000000  21.575868  17.322695  25.404292   # C_3
 372 2 7   0.000000  19.096407  22.985928   1.793107   # C_3
 373 2 7   0.000000  23.005068  16.781108  25.310559   # C_3
 374 2 7   0.000000  17.672773  23.137343   2.332028   # C_3
 375 2 5   0.000000  18.956420  23.455316  26.704628   # H_
 376 2 5   0.000000  21.287228  16.879657   0.490334   # H_
 377 2 7   0.000000  17.160323  21.865337   2.992430   # C_3
 378 2 5   0.000000  19.654446  22.263387   2.402536   # H_
 379 2 5   0.000000  21.491589  18.196430  24.746604   # H_
 380 2 5   0.000000  17.068696  21.048344   2.275681   # H_
 381 2 5   0.000000  16.172675  22.038333   3.431003   # H_
 382 2 5   0.000000  17.831368  21.542899   3.795785   # H_
 383 2 7   0.000000  23.189738  15.451948  26.031578   # C_3
 384 2 5   0.000000  23.061408  15.560337   0.216895   # H_
 385 2 5   0.000000  24.198681  15.065346  25.855751   # H_
 386 2 5   0.000000  22.473546  14.706110  25.672410   # H_
 387 2 5   0.000000  20.874987  16.560577  25.041867   # H_
 388 2 5   0.000000  19.596632  23.958137   1.892750   # H_
 389 2 5   0.000000  23.714702  17.512329  25.715084   # H_
 390 2 5   0.000000  23.255873  16.639005  24.252817   # H_
 391 2 5   0.000000  16.980090  23.454172   1.544272   # H_
 392 2 5   0.000000  17.673294  23.924370   3.096122   # H_
 393 1 10   0.000000  24.962178   3.566410   0.000000   # O_1
 394 1 6   0.000000  23.743777   3.152211   0.000000   # C_2
 395 1 10   0.000000  23.329576   1.933811   0.000000   # O_1
 396 1 8   0.000000  22.686778   4.209211   0.000000   # C_R
 397 1 8   0.000000  23.004079   5.535211   0.000000   # C_R
 398 1 8   0.000000  21.360778   3.891912   0.000000   # C_R
 399 1 8   0.000000  22.068180   6.508812   0.000000   # C_R
 400 1 5   0.000000  23.899779   5.780010   0.000000   # H_
 401 1 8   0.000000  20.387179   4.827813   0.000000   # C_R
 402 1 5   0.000000  21.115977   2.996212   0.000000   # H_
 403 1 8   0.000000  20.691080   6.204913   0.000000   # C_R
 404 1 8   0.000000  19.652880   7.243114   0.000000   # C_R
 405 1 5   0.000000  22.337080   7.399112   0.000000   # H_
 406 1 8   0.000000  19.956781   8.620213   0.000000   # C_R
 407 2 9   0.000000  19.083284   4.289180  26.535357   # N_3
 408 1 8   0.000000  18.275780   6.939215   0.000000   # C_R
 409 1 8   0.000000  18.983182   9.556114   0.000000   # C_R
 410 2 9   0.000000  21.276902   9.187219   0.102441   # N_3
 411 1 8   0.000000  17.339881   7.912815   0.000000   # C_R
 412 1 5   0.000000  18.006879   6.048915   0.000000   # H_
 413 1 8   0.000000  17.657182   9.238815   0.000000   # C_R
 414 1 6   0.000000  16.600183  10.295816   0.000000   # C_2
 415 1 5   0.000000  19.227983  10.451814   0.000000   # H_
 416 1 5   0.000000  16.444181   7.668016   0.000000   # H_
 417 1 10   0.000000  17.014384  11.514216   0.000000   # O_1
 418 1 10   0.000000  15.381782   9.881617   0.000000   # O_1
 419 2 7   0.000000  21.575868   9.573305   1.491708   # C_3
 420 2 7   0.000000  19.096407   3.910072  25.102893   # C_3
 421 2 7   0.000000  23.005068  10.114892   1.585441   # C_3
 422 2 7   0.000000  17.672773   3.758657  24.563972   # C_3
 423 2 5   0.000000  18.956420   3.440684   0.191372   # H_
 424 2 5   0.000000  21.287228  10.016343  26.405666   # H_
 425 2 7   0.000000  17.160323   5.030663  23.903570   # C_3
 426 2 5   0.000000  19.654446   4.632613  24.493464   # H_
 427 2 5   0.000000  21.491589   8.699570   2.149396   # H_
 428 2 5   0.000000  17.068696   5.847656  24.620319   # H_
 429 2 5   0.000000  16.172675   4.857667  23.464997   # H_
 430 2 5   0.000000  17.831368   5.353101  23.100215   # H_
 431 2 7   0.000000  23.189738  11.444052   0.864422   # C_3
 432 2 5   0.000000  23.061408  11.335663  26.679105   # H_
 433 2 5   0.000000  24.198681  11.830654   1.040249   # H_
 434 2 5   0.000000  22.473546  12.189890   1.223590   # H_
 435 2 5   0.000000  20.874987  10.335423   1.854133   # H_
 436 2 5   0.000000  19.596632   2.937863  25.003250   # H_
 437 2 5   0.000000  23.714702   9.383671   1.180916   # H_
 438 2 5   0.000000  23.255873  10.256995   2.643183   # H_
 439 2 5   0.000000  16.980090   3.441828  25.351728   # H_
 440 2 5   0.000000  17.673294   2.971630  23.799878   # H_
 441 1 10   0.000000   0.000000   1.933822   3.566410   # O_1
 442 1 6   0.000000   0.000000   3.152223   3.152211   # C_2
 443 1 10   0.000000   0.000000   3.566424   1.933811   # O_1
 444 1 8   0.000000   0.000000   4.209222   4.209211   # C_R
 445 1 8   0.000000   0.000000   3.891921   5.535211   # C_R
 446 1 8   0.000000   0.000000   5.535222   3.891912   # C_R
 447 1 8   0.000000   0.000000   4.827820   6.508812   # C_R
 448 1 5   0.000000   0.000000   2.996221   5.780010   # H_
 449 1 8   0.000000   0.000000   6.508821   4.827813   # C_R
 450 1 5   0.000000   0.000000   5.780023   2.996212   # H_
 451 1 8   0.000000   0.000000   6.204920   6.204913   # C_R
 452 1 8   0.000000   0.000000   7.243120   7.243114   # C_R
 453 1 5   0.000000   0.000000   4.558920   7.399112   # H_
 454 1 8   0.000000   0.000000   6.939219   8.620213   # C_R
 455 2 9   0.000000   0.360643   7.812716   4.289180   # N_3
 456 1 8   0.000000   0.000000   8.620220   6.939215   # C_R
 457 1 8   0.000000   0.000000   7.912818   9.556114   # C_R
 458 2 9   0.000000  26.793559   5.619098   9.187219   # N_3
 459 1 8   0.000000   0.000000   9.556119   7.912815   # C_R