 (written by mofun)

1200 atoms
816 bonds
1584 angles
2160 dihedrals
0 impropers

10 atom types
4 bond types
7 angle types
11 dihedral types
   0.000000  20.700400 xlo xhi
   0.000000  20.700400 ylo yhi
   0.000000  20.700400 zlo zhi

Masses

 1 91.2240   # Zr3+4
 2 15.9994   # O_3
 3 12.0107   # C_3
 4 1.0079   # H_
 5 1.0079   # H_
 6 12.0107   # C_2
 7 12.0107   # C_3
 8 12.0107   # C_R
 9 15.9994   # O_1
 10 15.9994   # O_3

Pair Coeffs

 1   0.069000   2.783168 # Zr3+4
 2   0.060000   3.118146 # O_3
 3   0.105000   3.430851 # C_3
 4   0.044000   2.571134 # H_
 5 0.044000 2.571134   # H_
 6 0.105000 3.430851   # C_2
 7 0.105000 3.430851   # C_3
 8 0.105000 3.430851   # C_R
 9 0.060000 3.118146   # O_1
 10 0.060000 3.118146   # O_3

Bond Coeffs

 1 572.510195 1.366311   # C_R O_3
 2 539.248552 1.393845   # C_3 O_3
 3 349.795899 1.514000   # C_3 C_3
 4 331.069389 1.109401   # C_3 H_

Angle Coeffs

 1 cosine/periodic  271.563462  -1  3   # C_R C_R O_3
 2 fourier  320.948910  0.300235  0.267331  0.266745   # C_3 O_3 C_R
 3 fourier  290.032745  0.343737  0.374972  0.281246   # C_3 C_3 O_3
 4 fourier  165.777838  0.343737  0.374972  0.281246   # H_ C_3 O_3
 5 fourier  117.318683  0.343737  0.374972  0.281246   # C_3 C_3 H_
 6 fourier  75.498766  0.343737  0.374972  0.281246   # H_ C_3 H_
 7 fourier  214.211821  0.343737  0.374972  0.281246   # C_3 C_3 C_3

Dihedral Coeffs

 1 harmonic 2.500000 1 2   # C_3 O_3 C_R C_R M=2
 2 harmonic 3.368555 -1 2   # C_2 C_R C_R O_3 M=4
 3 harmonic 3.368555 -1 2   # C_R C_R C_R O_3 M=4
 4 harmonic 3.368555 -1 2   # H_ C_R C_R O_3 M=4
 5 harmonic 0.032550 1 3   # C_3 C_3 O_3 C_R M=3
 6 harmonic 0.032550 1 3   # C_R O_3 C_3 H_ M=3
 7 harmonic 0.117722 1 3   # H_ C_3 C_3 O_3 M=9
 8 harmonic 0.117722 1 3   # C_3 C_3 C_3 O_3 M=9
 9 harmonic 0.117722 1 3   # H_ C_3 C_3 H_ M=9
 10 harmonic 0.117722 1 3   # C_3 C_3 C_3 H_ M=9
 11 harmonic 0.117722 1 3   # C_3 C_3 C_3 C_3 M=9

Atoms

 1 1 1   0.000000   2.481771   0.000000   0.000000   # Zr3+4
 2 1 1   0.000000   2.481771  10.350200  10.350200   # Zr3+4
 3 1 1   0.000000  12.831971   0.000000  10.350200   # Zr3+4
 4 1 1   0.000000  12.831971  10.350200   0.000000   # Zr3+4
 5 1 1   0.000000  18.218629   0.000000   0.000000   # Zr3+4
 6 1 1   0.000000  18.218629  10.350200  10.350200   # Zr3+4
 7 1 1   0.000000   7.868429   0.000000  10.350200   # Zr3+4
 8 1 1   0.000000   7.868429  10.350200   0.000000   # Zr3+4
 9 1 1   0.000000   0.000000   2.481771   0.000000   # Zr3+4
 10 1 1   0.000000   0.000000  12.831971  10.350200   # Zr3+4
 11 1 1   0.000000  10.350200   2.481771  10.350200   # Zr3+4
 12 1 1   0.000000  10.350200  12.831971   0.000000   # Zr3+4
 13 1 1   0.000000   0.000000  18.218629   0.000000   # Zr3+4
 14 1 1   0.000000   0.000000   7.868429  10.350200   # Zr3+4
 15 1 1   0.000000  10.350200  18.218629  10.350200   # Zr3+4
 16 1 1   0.000000  10.350200   7.868429   0.000000   # Zr3+4
 17 1 1   0.000000   0.000000   0.000000   2.481771   # Zr3+4
 18 1 1   0.000000   0.000000  10.350200  12.831971   # Zr3+4
 19 1 1   0.000000  10.350200   0.000000  12.831971   # Zr3+4
 20 1 1   0.000000  10.350200  10.350200   2.481771   # Zr3+4
 21 1 1   0.000000   0.000000   0.000000  18.218629   # Zr3+4
 22 1 1   0.000000   0.000000  10.350200   7.868429   # Zr3+4
 23 1 1   0.000000  10.350200   0.000000   7.868429   # Zr3+4
 24 1 1   0.000000  10.350200  10.350200  18.218629   # Zr3+4
 25 1 2   0.000000   1.161292   9.188908   9.188908   # O_3
 26 1 2   0.000000  11.511492  19.539108   9.188908   # O_3
 27 1 2   0.000000  11.511492   9.188908  19.539108   # O_3
 28 1 2   0.000000   9.188908   1.161292   9.188908   # O_3
 29 1 2   0.000000   9.188908  11.511492  19.539108   # O_3
 30 1 2   0.000000  19.539108  19.539108   1.161292   # O_3
 31 1 2   0.000000  19.539108   9.188908  11.511492   # O_3
 32 1 2   0.000000   1.161292   1.161292   1.161292   # O_3
 33 1 2   0.000000  11.511492  11.511492   1.161292   # O_3
 34 1 2   0.000000  19.539108   1.161292   1.161292   # O_3
 35 1 2   0.000000  19.539108  11.511492  11.511492   # O_3
 36 1 2   0.000000   9.188908   1.161292  11.511492   # O_3
 37 1 2   0.000000   9.188908  11.511492   1.161292   # O_3
 38 1 2   0.000000   1.161292  19.539108   1.161292   # O_3
 39 1 2   0.000000   1.161292   9.188908  11.511492   # O_3
 40 1 2   0.000000  11.511492  19.539108  11.511492   # O_3
 41 1 2   0.000000  11.511492   9.188908   1.161292   # O_3
 42 1 2   0.000000  19.539108  19.539108  19.539108   # O_3
 43 1 2   0.000000  19.539108   9.188908   9.188908   # O_3
 44 1 2   0.000000   9.188908  19.539108   9.188908   # O_3
 45 1 2   0.000000   9.188908   9.188908  19.539108   # O_3
 46 1 2   0.000000   1.161292   1.161292  19.539108   # O_3
 47 1 2   0.000000   1.161292  11.511492   9.188908   # O_3
 48 1 2   0.000000  11.511492   1.161292   9.188908   # O_3
 49 1 6   0.000000   3.179581   0.000000  17.520819   # C_2
 50 1 9   0.000000   3.528595   0.000000  18.727815   # O_1
 51 1 9   0.000000   1.972577  20.700400  17.171832   # O_1
 52 1 8   0.000000   4.243569   0.000000  16.456806   # C_R
 53 1 8   0.000000   3.816555  20.700400  15.162811   # C_R
 54 1 5   0.000000   2.700552  20.700400  14.930824   # H_
 55 2 10   0.000000   4.411944   0.297144  12.892921   # O_3
 56 1 8   0.000000   4.812543  20.700400  14.167800   # C_R
 57 1 8   0.000000   6.106548   0.000000  14.593785   # C_R
 58 1 8   0.000000   6.532563   0.000000  15.887781   # C_R
 59 1 8   0.000000   5.537574   0.000000  16.883792   # C_R
 60 2 10   0.000000   5.938122  20.252715  18.124191   # O_3
 61 1 5   0.000000   7.648566   0.000000  16.119768   # H_
 62 1 9   0.000000   8.377540   0.000000  13.878760   # O_1
 63 1 6   0.000000   7.170536   0.000000  13.529773   # C_2
 64 1 9   0.000000   6.821523  20.700400  12.322777   # O_1
 65 2 7   0.000000   3.646792   1.513506  12.795818   # C_3
 66 2 7   0.000000   4.210070   2.741636  13.538106   # C_3
 67 2 5   0.000000   3.610720   1.761534  11.727715   # H_
 68 2 5   0.000000   2.615565   1.288906  13.065915   # H_
 69 2 5   0.000000   4.976276   3.194467  12.895359   # H_
 70 2 7   0.000000   3.171320   3.813650  13.889338   # C_3
 71 2 5   0.000000   4.744895   2.485858  14.457417   # H_
 72 2 5   0.000000   3.737004   4.696099  14.218097   # H_
 73 2 5   0.000000   2.614731   4.120891  12.997085   # H_
 74 2 7   0.000000   2.217139   3.452568  15.038720   # C_3
 75 2 7   0.000000   6.706782  19.026201  18.076850   # C_3
 76 2 7   0.000000   6.087424  17.852942  17.278912   # C_3
 77 2 5   0.000000   7.729307  19.256487  17.761199   # H_
 78 2 5   0.000000   6.805581  18.697718  19.118647   # H_
 79 2 5   0.000000   5.422326  18.184194  16.477218   # H_
 80 2 7   0.000000   7.116040  16.885093  16.666996   # C_3
 81 2 5   0.000000   5.439996  17.286483  17.960215   # H_
 82 2 5   0.000000   7.777168  16.497539  17.449922   # H_
 83 2 5   0.000000   6.569958  16.025761  16.256683   # H_
 84 2 7   0.000000   7.949345  17.511858  15.542600   # C_3
 85 2 5   0.000000   8.600997  18.292406  15.947702   # H_
 86 2 7   0.000000   8.816174  16.493873  14.816333   # C_3
 87 2 5   0.000000   7.288655  17.980547  14.806416   # H_
 88 2 5   0.000000   1.934050   4.385493  15.542177   # H_
 89 2 7   0.000000   0.926044   2.775182  14.603003   # C_3
 90 2 5   0.000000   2.723919   2.841648  15.794985   # H_
 91 2 5   0.000000   0.190813   2.813184  15.413546   # H_
 92 2 5   0.000000   1.074512   1.720714  14.365697   # H_
 93 2 5   0.000000   0.490407   3.271601  13.730168   # H_
 94 2 5   0.000000   9.495226  17.004609  14.124517   # H_
 95 2 5   0.000000   8.199745  15.805345  14.229489   # H_
 96 2 5   0.000000   9.420230  15.909964  15.516663   # H_
 97 1 6   0.000000   3.179581  10.350200   7.170619   # C_2
 98 1 9   0.000000   3.528595  10.350200   8.377615   # O_1
 99 1 9   0.000000   1.972577  10.350200   6.821632   # O_1
 100 1 8   0.000000   4.243569  10.350200   6.106606   # C_R
 101 1 8   0.000000   3.816555  10.350200   4.812611   # C_R
 102 1 5   0.000000   2.700552  10.350200   4.580624   # H_
 103 2 10   0.000000   4.411944  10.647344   2.542721   # O_3
 104 1 8   0.000000   4.812543  10.350200   3.817600   # C_R
 105 1 8   0.000000   6.106548  10.350200   4.243585   # C_R
 106 1 8   0.000000   6.532563  10.350200   5.537581   # C_R
 107 1 8   0.000000   5.537574  10.350200   6.533592   # C_R
 108 2 10   0.000000   5.938122   9.902515   7.773991   # O_3
 109 1 5   0.000000   7.648566  10.350200   5.769568   # H_
 110 1 9   0.000000   8.377540  10.350200   3.528560   # O_1
 111 1 6   0.000000   7.170536  10.350200   3.179573   # C_2
 112 1 9   0.000000   6.821523  10.350200   1.972577   # O_1
 113 2 7   0.000000   3.646792  11.863706   2.445618   # C_3
 114 2 7   0.000000   4.210070  13.091836   3.187906   # C_3
 115 2 5   0.000000   3.610720  12.111734   1.377515   # H_
 116 2 5   0.000000   2.615565  11.639106   2.715715   # H_
 117 2 5   0.000000   4.976276  13.544667   2.545159   # H_
 118 2 7   0.000000   3.171320  14.163850   3.539138   # C_3
 119 2 5   0.000000   4.744895  12.836058   4.107217   # H_
 120 2 5   0.000000   3.737004  15.046299   3.867897   # H_
 121 2 5   0.000000   2.614731  14.471091   2.646885   # H_
 122 2 7   0.000000   2.217139  13.802768   4.688520   # C_3
 123 2 7   0.000000   6.706782   8.676001   7.726650   # C_3
 124 2 7   0.000000   6.087424   7.502742   6.928712   # C_3
 125 2 5   0.000000   7.729307   8.906287   7.410999   # H_
 126 2 5   0.000000   6.805581   8.347518   8.768447   # H_
 127 2 5   0.000000   5.422326   7.833994   6.127018   # H_
 128 2 7   0.000000   7.116040   6.534893   6.316796   # C_3
 129 2 5   0.000000   5.439996   6.936283   7.610015   # H_
 130 2 5   0.000000   7.777168   6.147339   7.099722   # H_
 131 2 5   0.000000   6.569958   5.675561   5.906483   # H_
 132 2 7   0.000000   7.949345   7.161658   5.192400   # C_3
 133 2 5   0.000000   8.600997   7.942206   5.597502   # H_
 134 2 7   0.000000   8.816174   6.143673   4.466133   # C_3
 135 2 5   0.000000   7.288655   7.630347   4.456216   # H_
 136 2 5   0.000000   1.934050  14.735693   5.191977   # H_
 137 2 7   0.000000   0.926044  13.125382   4.252803   # C_3
 138 2 5   0.000000   2.723919  13.191848   5.444785   # H_
 139 2 5   0.000000   0.190813  13.163384   5.063346   # H_
 140 2 5   0.000000   1.074512  12.070914   4.015497   # H_
 141 2 5   0.000000   0.490407  13.621801   3.379968   # H_
 142 2 5   0.000000   9.495226   6.654409   3.774317   # H_
 143 2 5   0.000000   8.199745   5.455145   3.879289   # H_
 144 2 5   0.000000   9.420230   5.559764   5.166463   # H_
 145 1 6   0.000000  13.529781   0.000000   7.170619   # C_2
 146 1 9   0.000000  13.878795   0.000000   8.377615   # O_1
 147 1 9   0.000000  12.322777  20.700400   6.821632   # O_1
 148 1 8   0.000000  14.593769   0.000000   6.106606   # C_R
 149 1 8   0.000000  14.166755  20.700400   4.812611   # C_R
 150 1 5   0.000000  13.050752  20.700400   4.580624   # H_
 151 2 10   0.000000  14.762144   0.297144   2.542721   # O_3
 152 1 8   0.000000  15.162743  20.700400   3.817600   # C_R
 153 1 8   0.000000  16.456748   0.000000   4.243585   # C_R
 154 1 8   0.000000  16.882763   0.000000   5.537581   # C_R
 155 1 8   0.000000  15.887774   0.000000   6.533592   # C_R
 156 2 10   0.000000  16.288322  20.252715   7.773991   # O_3
 157 1 5   0.000000  17.998766   0.000000   5.769568   # H_
 158 1 9   0.000000  18.727740   0.000000   3.528560   # O_1
 159 1 6   0.000000  17.520736   0.000000   3.179573   # C_2
 160 1 9   0.000000  17.171723  20.700400   1.972577   # O_1
 161 2 7   0.000000  13.996992   1.513506   2.445618   # C_3
 162 2 7   0.000000  14.560270   2.741636   3.187906   # C_3
 163 2 5   0.000000  13.960920   1.761534   1.377515   # H_
 164 2 5   0.000000  12.965765   1.288906   2.715715   # H_
 165 2 5   0.000000  15.326476   3.194467   2.545159   # H_
 166 2 7   0.000000  13.521520   3.813650   3.539138   # C_3
 167 2 5   0.000000  15.095095   2.485858   4.107217   # H_
 168 2 5   0.000000  14.087204   4.696099   3.867897   # H_
 169 2 5   0.000000  12.964931   4.120891   2.646885   # H_
 170 2 7   0.000000  12.567339   3.452568   4.688520   # C_3
 171 2 7   0.000000  17.056982  19.026201   7.726650   # C_3
 172 2 7   0.000000  16.437624  17.852942   6.928712   # C_3
 173 2 5   0.000000  18.079507  19.256487   7.410999   # H_
 174 2 5   0.000000  17.155781  18.697718   8.768447   # H_
 175 2 5   0.000000  15.772526  18.184194   6.127018   # H_
 176 2 7   0.000000  17.466240  16.885093   6.316796   # C_3
 177 2 5   0.000000  15.790196  17.286483   7.610015   # H_
 178 2 5   0.000000  18.127368  16.497539   7.099722   # H_
 179 2 5   0.000000  16.920158  16.025761   5.906483   # H_
 180 2 7   0.000000  18.299545  17.511858   5.192401   # C_3
 181 2 5   0.000000  18.951197  18.292406   5.597502   # H_
 182 2 7   0.000000  19.166374  16.493873   4.466133   # C_3
 183 2 5   0.000000  17.638855  17.980547   4.456216   # H_
 184 2 5   0.000000  12.284250   4.385493   5.191977   # H_
 185 2 7   0.000000  11.276244   2.775182   4.252803   # C_3
 186 2 5   0.000000  13.074119   2.841648   5.444785   # H_
 187 2 5   0.000000  10.541013   2.813184   5.063346   # H_
 188 2 5   0.000000  11.424712   1.720714   4.015497   # H_
 189 2 5   0.000000  10.840607   3.271601   3.379968   # H_
 190 2 5   0.000000  19.845426  17.004609   3.774317   # H_
 191 2 5   0.000000  18.549945  15.805345   3.879289   # H_
 192 2 5   0.000000  19.770430  15.909964   5.166463   # H_
 193 1 6   0.000000  13.529781  10.350200  17.520819   # C_2
 194 1 9   0.000000  13.878795  10.350200  18.727815   # O_1
 195 1 9   0.000000  12.322777  10.350200  17.171832   # O_1
 196 1 8   0.000000  14.593769  10.350200  16.456806   # C_R
 197 1 8   0.000000  14.166755  10.350200  15.162811   # C_R
 198 1 5   0.000000  13.050752  10.350200  14.930824   # H_
 199 2 10   0.000000  14.762144  10.647344  12.892921   # O_3
 200 1 8   0.000000  15.162743  10.350200  14.167800   # C_R
 201 1 8   0.000000  16.456748  10.350200  14.593785   # C_R
 202 1 8   0.000000  16.882763  10.350200  15.887781   # C_R
 203 1 8   0.000000  15.887774  10.350200  16.883792   # C_R
 204 2 10   0.000000  16.288322   9.902515  18.124191   # O_3
 205 1 5   0.000000  17.998766  10.350200  16.119768   # H_
 206 1 9   0.000000  18.727740  10.350200  13.878760   # O_1
 207 1 6   0.000000  17.520736  10.350200  13.529773   # C_2
 208 1 9   0.000000  17.171723  10.350200  12.322777   # O_1
 209 2 7   0.000000  13.996992  11.863706  12.795818   # C_3
 210 2 7   0.000000  14.560270  13.091836  13.538106   # C_3
 211 2 5   0.000000  13.960920  12.111734  11.727715   # H_
 212 2 5   0.000000  12.965765  11.639106  13.065915   # H_
 213 2 5   0.000000  15.326476  13.544667  12.895359   # H_
 214 2 7   0.000000  13.521520  14.163850  13.889338   # C_3
 215 2 5   0.000000  15.095095  12.836058  14.457417   # H_
 216 2 5   0.000000  14.087204  15.046299  14.218097   # H_
 217 2 5   0.000000  12.964931  14.471091  12.997085   # H_
 218 2 7   0.000000  12.567339  13.802768  15.038720   # C_3
 219 2 7   0.000000  17.056982   8.676001  18.076850   # C_3
 220 2 7   0.000000  16.437624   7.502742  17.278912   # C_3
 221 2 5   0.000000  18.079507   8.906287  17.761199   # H_
 222 2 5   0.000000  17.155781   8.347518  19.118647   # H_
 223 2 5   0.000000  15.772526   7.833994  16.477218   # H_
 224 2 7   0.000000  17.466240   6.534893  16.666996   # C_3
 225 2 5   0.000000  15.790196   6.936283  17.960215   # H_
 226 2 5   0.000000  18.127368   6.147339  17.449922   # H_
 227 2 5   0.000000  16.920158   5.675561  16.256683   # H_
 228 2 7   0.000000  18.299545   7.161658  15.542600   # C_3
 229 2 5   0.000000  18.951197   7.942206  15.947702   # H_
 230 2 7   0.000000  19.166374   6.143673  14.816333   # C_3
 231 2 5   0.000000  17.638855   7.630347  14.806416   # H_
 232 2 5   0.000000  12.284250  14.735693  15.542177   # H_
 233 2 7   0.000000  11.276244  13.125382  14.603003   # C_3
 234 2 5   0.000000  13.074119  13.191848  15.794985   # H_
 235 2 5   0.000000  10.541013  13.163384  15.413546   # H_
 236 2 5   0.000000  11.424712  12.070914  14.365697   # H_
 237 2 5   0.000000  10.840607  13.621801  13.730168   # H_
 238 2 5   0.000000  19.845426   6.654409  14.124517   # H_
 239 2 5   0.000000  18.549945   5.455145  14.229489   # H_
 240 2 5   0.000000  19.770430   5.559764  15.516663   # H_
 241 1 6   0.000000  17.520819   0.000000  17.520819   # C_2
 242 1 9   0.000000  17.171805   0.000000  18.727815   # O_1
 243 1 9   0.000000  18.727823   0.000000  17.171832   # O_1
 244 1 8   0.000000  16.456831   0.000000  16.456806   # C_R
 245 1 8   0.000000  16.883845   0.000000  15.162811   # C_R
 246 1 5   0.000000  17.999848   0.000000  14.930824   # H_
 247 2 10   0.000000  16.288456  20.403256  12.892921   # O_3
 248 1 8   0.000000  15.887857   0.000000  14.167800   # C_R
 249 1 8   0.000000  14.593852   0.000000  14.593785   # C_R
 250 1 8   0.000000  14.167837   0.000000  15.887781   # C_R
 251 1 8   0.000000  15.162826   0.000000  16.883792   # C_R
 252 2 10   0.000000  14.762278   0.447685  18.124191   # O_3
 253 1 5   0.000000  13.051834   0.000000  16.119768   # H_
 254 1 9   0.000000  12.322860   0.000000  13.878760   # O_1
 255 1 6   0.000000  13.529864   0.000000  13.529773   # C_2
 256 1 9   0.000000  13.878877   0.000000  12.322777   # O_1
 257 2 7   0.000000  17.053608  19.186894  12.795818   # C_3
 258 2 7   0.000000  16.490330  17.958764  13.538106   # C_3
 259 2 5   0.000000  17.089680  18.938866  11.727715   # H_
 260 2 5   0.000000  18.084835  19.411494  13.065915   # H_
 261 2 5   0.000000  15.724124  17.505933  12.895359   # H_
 262 2 7   0.000000  17.529080  16.886750  13.889338   # C_3
 263 2 5   0.000000  15.955505  18.214542  14.457417   # H_
 264 2 5   0.000000  16.963396  16.004301  14.218097   # H_
 265 2 5   0.000000  18.085669  16.579509  12.997085   # H_
 266 2 7   0.000000  18.483261  17.247832  15.038720   # C_3
 267 2 7   0.000000  13.993618   1.674199  18.076850   # C_3
 268 2 7   0.000000  14.612976   2.847458  17.278912   # C_3
 269 2 5   0.000000  12.971093   1.443913  17.761199   # H_
 270 2 5   0.000000  13.894819   2.002682  19.118647   # H_
 271 2 5   0.000000  15.278074   2.516206  16.477218   # H_
 272 2 7   0.000000  13.584360   3.815307  16.666996   # C_3
 273 2 5   0.000000  15.260404   3.413917  17.960215   # H_
 274 2 5   0.000000  12.923232   4.202861  17.449922   # H_
 275 2 5   0.000000  14.130442   4.674639  16.256683   # H_
 276 2 7   0.000000  12.751055   3.188542  15.542600   # C_3
 277 2 5   0.000000  12.099403   2.407994  15.947702   # H_
 278 2 7   0.000000  11.884226   4.206527  14.816333   # C_3
 279 2 5   0.000000  13.411745   2.719853  14.806416   # H_
 280 2 5   0.000000  18.766350  16.314907  15.542177   # H_
 281 2 7   0.000000  19.774356  17.925218  14.603003   # C_3
 282 2 5   0.000000  17.976481  17.858752  15.794985   # H_
 283 2 5   0.000000  20.509587  17.887216  15.413546   # H_
 284 2 5   0.000000  19.625888  18.979686  14.365697   # H_
 285 2 5   0.000000  20.209993  17.428799  13.730168   # H_
 286 2 5   0.000000  11.205174   3.695791  14.124517   # H_
 287 2 5   0.000000  12.500655   4.895055  14.229489   # H_
 288 2 5   0.000000  11.280170   4.790436  15.516663   # H_
 289 1 6   0.000000  17.520819  10.350200   7.170619   # C_2
 290 1 9   0.000000  17.171805  10.350200   8.377615   # O_1
 291 1 9   0.000000  18.727823  10.350200   6.821632   # O_1
 292 1 8   0.000000  16.456831  10.350200   6.106606   # C_R
 293 1 8   0.000000  16.883845  10.350200   4.812611   # C_R
 294 1 5   0.000000  17.999848  10.350200   4.580624   # H_
 295 2 10   0.000000  16.288456  10.053056   2.542721   # O_3
 296 1 8   0.000000  15.887857  10.350200   3.817600   # C_R
 297 1 8   0.000000  14.593852  10.350200   4.243585   # C_R
 298 1 8   0.000000  14.167837  10.350200   5.537581   # C_R
 299 1 8   0.000000  15.162826  10.350200   6.533592   # C_R
 300 2 10   0.000000  14.762278  10.797885   7.773991   # O_3
 301 1 5   0.000000  13.051834  10.350200   5.769568   # H_
 302 1 9   0.000000  12.322860  10.350200   3.528560   # O_1
 303 1 6   0.000000  13.529864  10.350200   3.179573   # C_2
 304 1 9   0.000000  13.878877  10.350200   1.972577   # O_1
 305 2 7   0.000000  17.053608   8.836694   2.445618   # C_3
 306 2 7   0.000000  16.490330   7.608564   3.187906   # C_3
 307 2 5   0.000000  17.089680   8.588666   1.377515   # H_
 308 2 5   0.000000  18.084835   9.061294   2.715715   # H_
 309 2 5   0.000000  15.724124   7.155733   2.545159   # H_
 310 2 7   0.000000  17.529080   6.536550   3.539138   # C_3
 311 2 5   0.000000  15.955505   7.864342   4.107217   # H_
 312 2 5   0.000000  16.963396   5.654101   3.867897   # H_
 313 2 5   0.000000  18.085669   6.229309   2.646885   # H_
 314 2 7   0.000000  18.483261   6.897632   4.688520   # C_3
 315 2 7   0.000000  13.993618  12.024399   7.726650   # C_3
 316 2 7   0.000000  14.612976  13.197658   6.928712   # C_3
 317 2 5   0.000000  12.971093  11.794113   7.410999   # H_
 318 2 5   0.000000  13.894819  12.352882   8.768447   # H_
 319 2 5   0.000000  15.278074  12.866406   6.127018   # H_
 320 2 7   0.000000  13.584360  14.165507   6.316796   # C_3
 321 2 5   0.000000  15.260404  13.764117   7.610015   # H_
 322 2 5   0.000000  12.923232  14.553061   7.099722   # H_
 323 2 5   0.000000  14.130442  15.024839   5.906483   # H_
 324 2 7   0.000000  12.751055  13.538742   5.192400   # C_3
 325 2 5   0.000000  12.099403  12.758194   5.597502   # H_
 326 2 7   0.000000  11.884226  14.556727   4.466133   # C_3
 327 2 5   0.000000  13.411745  13.070053   4.456216   # H_
 328 2 5   0.000000  18.766350   5.964707   5.191977   # H_
 329 2 7   0.000000  19.774356   7.575018   4.252803   # C_3
 330 2 5   0.000000  17.976481   7.508552   5.444785   # H_
 331 2 5   0.000000  20.509587   7.537016   5.063346   # H_
 332 2 5   0.000000  19.625888   8.629486   4.015497   # H_
 333 2 5   0.000000  20.209992   7.078599   3.379968   # H_
 334 2 5   0.000000  11.205174  14.045991   3.774317   # H_
 335 2 5   0.000000  12.500655  15.245255   3.879289   # H_
 336 2 5   0.000000  11.280170  15.140636   5.166463   # H_
 337 1 6   0.000000   7.170619   0.000000   7.170619   # C_2
 338 1 9   0.000000   6.821605   0.000000   8.377615   # O_1
 339 1 9   0.000000   8.377623   0.000000   6.821632   # O_1
 340 1 8   0.000000   6.106631   0.000000   6.106606   # C_R
 341 1 8   0.000000   6.533645   0.000000   4.812611   # C_R
 342 1 5   0.000000   7.649648   0.000000   4.580624   # H_
 343 2 10   0.000000   5.938256  20.403256   2.542721   # O_3
 344 1 8   0.000000   5.537657   0.000000   3.817600   # C_R
 345 1 8   0.000000   4.243652   0.000000   4.243585   # C_R
 346 1 8   0.000000   3.817637   0.000000   5.537581   # C_R
 347 1 8   0.000000   4.812626   0.000000   6.533592   # C_R
 348 2 10   0.000000   4.412078   0.447685   7.773991   # O_3
 349 1 5   0.000000   2.701634   0.000000   5.769568   # H_
 350 1 9   0.000000   1.972660   0.000000   3.528560   # O_1
 351 1 6   0.000000   3.179664   0.000000   3.179573   # C_2
 352 1 9   0.000000   3.528677   0.000000   1.972577   # O_1
 353 2 7   0.000000   6.703408  19.186894   2.445618   # C_3
 354 2 7   0.000000   6.140130  17.958764   3.187906   # C_3
 355 2 5   0.000000   6.739480  18.938866   1.377515   # H_
 356 2 5   0.000000   7.734635  19.411494   2.715715   # H_
 357 2 5   0.000000   5.373924  17.505933   2.545159   # H_
 358 2 7   0.000000   7.178880  16.886750   3.539138   # C_3
 359 2 5   0.000000   5.605305  18.214542   4.107217   # H_
 360 2 5   0.000000   6.613196  16.004301   3.867897   # H_
 361 2 5   0.000000   7.735469  16.579509   2.646885   # H_
 362 2 7   0.000000   8.133061  17.247832   4.688520   # C_3
 363 2 7   0.000000   3.643418   1.674199   7.726650   # C_3
 364 2 7   0.000000   4.262776   2.847458   6.928712   # C_3
 365 2 5   0.000000   2.620893   1.443913   7.410999   # H_
 366 2 5   0.000000   3.544619   2.002682   8.768447   # H_
 367 2 5   0.000000   4.927874   2.516206   6.127018   # H_
 368 2 7   0.000000   3.234160   3.815307   6.316796   # C_3
 369 2 5   0.000000   4.910204   3.413917   7.610015   # H_
 370 2 5   0.000000   2.573032   4.202861   7.099722   # H_
 371 2 5   0.000000   3.780242   4.674639   5.906483   # H_
 372 2 7   0.000000   2.400855   3.188542   5.192400   # C_3
 373 2 5   0.000000   1.749203   2.407994   5.597502   # H_
 374 2 7   0.000000   1.534026   4.206527   4.466133   # C_3
 375 2 5   0.000000   3.061545   2.719853   4.456216   # H_
 376 2 5   0.000000   8.416150  16.314907   5.191977   # H_
 377 2 7   0.000000   9.424156  17.925218   4.252803   # C_3
 378 2 5   0.000000   7.626281  17.858752   5.444785   # H_
 379 2 5   0.000000  10.159387  17.887216   5.063346   # H_
 380 2 5   0.000000   9.275688  18.979686   4.015497   # H_
 381 2 5   0.000000   9.859793  17.428799   3.379968   # H_
 382 2 5   0.000000   0.854974   3.695791   3.774317   # H_
 383 2 5   0.000000   2.150455   4.895055   3.879289   # H_
 384 2 5   0.000000   0.929970   4.790436   5.166463   # H_
 385 1 6   0.000000   7.170619  10.350200  17.520819   # C_2
 386 1 9   0.000000   6.821605  10.350200  18.727815   # O_1
 387 1 9   0.000000   8.377623  10.350200  17.171832   # O_1
 388 1 8   0.000000   6.106631  10.350200  16.456806   # C_R
 389 1 8   0.000000   6.533645  10.350200  15.162811   # C_R
 390 1 5   0.000000   7.649648  10.350200  14.930824   # H_
 391 2 10   0.000000   5.938256  10.053056  12.892921   # O_3
 392 1 8   0.000000   5.537657  10.350200  14.167800   # C_R
 393 1 8   0.000000   4.243652  10.350200  14.593785   # C_R
 394 1 8   0.000000   3.817637  10.350200  15.887781   # C_R
 395 1 8   0.000000   4.812626  10.350200  16.883792   # C_R
 396 2 10   0.000000   4.412078  10.797885  18.124191   # O_3
 397 1 5   0.000000   2.701634  10.350200  16.119768   # H_
 398 1 9   0.000000   1.972660  10.350200  13.878760   # O_1
 399 1 6   0.000000   3.179664  10.350200  13.529773   # C_2
 400 1 9   0.000000   3.528677  10.350200  12.322777   # O_1
 401 2 7   0.000000   6.703408   8.836694  12.795818   # C_3
 402 2 7   0.000000   6.140130   7.608564  13.538106   # C_3
 403 2 5   0.000000   6.739480   8.588666  11.727715   # H_
 404 2 5   0.000000   7.734635   9.061294  13.065915   # H_
 405 2 5   0.000000   5.373924   7.155733  12.895359   # H_
 406 2 7   0.000000   7.178880   6.536550  13.889338   # C_3
 407 2 5   0.000000   5.605305   7.864342  14.457417   # H_
 408 2 5   0.000000   6.613196   5.654101  14.218097   # H_
 409 2 5   0.000000   7.735469   6.229309  12.997085   # H_
 410 2 7   0.000000   8.133061   6.897632  15.038720   # C_3
 411 2 7   0.000000   3.643418  12.024399  18.076850   # C_3
 412 2 7   0.000000   4.262776  13.197658  17.278912   # C_3
 413 2 5   0.000000   2.620893  11.794113  17.761199   # H_
 414 2 5   0.000000   3.544619  12.352882  19.118647   # H_
 415 2 5   0.000000   4.927874  12.866406  16.477218   # H_
 416 2 7   0.000000   3.234160  14.165507  16.666996   # C_3
 417 2 5   0.000000   4.910204  13.764117  17.960215   # H_
 418 2 5   0.000000   2.573032  14.553061  17.449922   # H_
 419 2 5   0.000000   3.780242  15.024839  16.256683   # H_
 420 2 7   0.000000   2.400855  13.538742  15.542600   # C_3
 421 2 5   0.000000   1.749203  12.758194  15.947702   # H_
 422 2 7   0.000000   1.534026  14.556727  14.816333   # C_3
 423 2 5   0.000000   3.061545  13.070053  14.806416   # H_
 424 2 5   0.000000   8.416150   5.964707  15.542177   # H_
 425 2 7   0.000000   9.424156   7.575018  14.603003   # C_3
 426 2 5   0.000000   7.626281   7.508552  15.794985   # H_
 427 2 5   0.000000  10.159387   7.537016  15.413546   # H_
 428 2 5   0.000000   9.275688   8.629486  14.365697   # H_
 429 2 5   0.000000   9.859793   7.078599  13.730168   # H_
 430 2 5   0.000000   0.854974  14.045991  14.124517   # H_
 431 2 5   0.000000   2.150455  15.245255  14.229489   # H_
 432 2 5   0.000000   0.929970  15.140636  15.516663   # H_
 433 1 6   0.000000  17.520819   3.179581   0.000000   # C_2
 434 1 9   0.000000  18.727815   3.528595  20.700400   # O_1
 435 1 9   0.000000  17.171832   1.972577   0.000000   # O_1
 436 1 8   0.000000  16.456806   4.243569  20.700400   # C_R
 437 1 8   0.000000  15.162811   3.816555   0.000000   # C_R
 438 1 5   0.000000  14.930824   2.700552   0.000000   # H_
 439 2 10   0.000000  12.892921   4.411944   0.297144   # O_3
 440 1 8   0.000000  14.167800   4.812543   0.000000   # C_R
 441 1 8   0.000000  14.593785   6.106548  20.700400   # C_R
 442 1 8   0.000000  15.887781   6.532563  20.700400   # C_R
 443 1 8   0.000000  16.883792   5.537574  20.700400   # C_R
 444 2 10   0.000000  18.124191   5.938122  20.252715   # O_3
 445 1 5   0.000000  16.119768   7.648566  20.700400   # H_
 446 1 9   0.000000  13.878760   8.377540  20.700400   # O_1
 447 1 6   0.000000  13.529773   7.170536  20.700400   # C_2
 448 1 9   0.000000  12.322777   6.821523   0.000000   # O_1
 449 2 7   0.000000  12.795818   3.646792   1.513506   # C_3
 450 2 7   0.000000  13.538106   4.210070   2.741636   # C_3
 451 2 5   0.000000  11.727715   3.610720   1.761534   # H_
 452 2 5   0.000000  13.065915   2.615565   1.288906   # H_
 453 2 5   0.000000  12.895359   4.976276   3.194467   # H_
 454 2 7   0.000000  13.889338   3.171320   3.813650   # C_3
 455 2 5   0.000000  14.457417   4.744895   2.485858   # H_
 456 2 5   0.000000  14.218097   3.737004   4.696099   # H_
 457 2 5   0.000000  12.997085   2.614731   4.120891   # H_
 458 2 7   0.000000  15.038720   2.217139   3.452568   # C_3
 459 2 7   0.000000  18.076850   6.706782  19.026201   # C_3
 460 2 7   0.000000  17.278912   6.087424  17.852942   # C_3
 461 2 5   0.000000  17.761199   7.729307  19.256487   # H_
 462 2 5   0.000000  19.118647   6.805581  18.697718   # H_
 463 2 5   0.000000  16.477218   5.422326  18.184194   # H_
 464 2 7   0.000000  16.666996   7.116040  16.885093   # C_3