 (written by mofun)

912 atoms
528 bonds
1008 angles
1296 dihedrals
0 impropers

10 atom types
4 bond types
7 angle types
10 dihedral types
   0.000000  20.700400 xlo xhi
   0.000000  20.700400 ylo yhi
   0.000000  20.700400 zlo zhi

Masses

 1 91.2240   # Zr3+4
 2 15.9994   # O_3
 3 12.0107   # C_3
 4 1.0079   # H_
 5 1.0079   # H_
 6 12.0107   # C_2
 7 12.0107   # C_3
 8 12.0107   # C_R
 9 15.9994   # O_1
 10 15.9994   # O_3

Pair Coeffs

 1   0.069000   2.783168 # Zr3+4
 2   0.060000   3.118146 # O_3
 3   0.105000   3.430851 # C_3
 4   0.044000   2.571134 # H_
 5 0.044000 2.571134   # H_
 6 0.105000 3.430851   # C_2
 7 0.105000 3.430851   # C_3
 8 0.105000 3.430851   # C_R
 9 0.060000 3.118146   # O_1
 10 0.060000 3.118146   # O_3

Bond Coeffs

 1 572.510195 1.366311   # C_R O_3
 2 539.248552 1.393845   # C_3 O_3
 3 349.795899 1.514000   # C_3 C_3
 4 331.069389 1.109401   # C_3 H_

Angle Coeffs

 1 cosine/periodic  271.563462  -1  3   # C_R C_R O_3
 2 fourier  320.948910  0.300235  0.267331  0.266745   # C_3 O_3 C_R
 3 fourier  290.032745  0.343737  0.374972  0.281246   # C_3 C_3 O_3
 4 fourier  165.777838  0.343737  0.374972  0.281246   # H_ C_3 O_3
 5 fourier  117.318683  0.343737  0.374972  0.281246   # C_3 C_3 H_
 6 fourier  75.498766  0.343737  0.374972  0.281246   # H_ C_3 H_
 7 fourier  214.211821  0.343737  0.374972  0.281246   # C_3 C_3 C_3

Dihedral Coeffs

 1 harmonic 2.500000 1 2   # C_3 O_3 C_R C_R M=2
 2 harmonic 3.368555 -1 2   # C_2 C_R C_R O_3 M=4
 3 harmonic 3.368555 -1 2   # C_R C_R C_R O_3 M=4
 4 harmonic 3.368555 -1 2   # H_ C_R C_R O_3 M=4
 5 harmonic 0.032550 1 3   # C_3 C_3 O_3 C_R M=3
 6 harmonic 0.032550 1 3   # C_R O_3 C_3 H_ M=3
 7 harmonic 0.117722 1 3   # H_ C_3 C_3 O_3 M=9
 8 harmonic 0.117722 1 3   # C_3 C_3 C_3 O_3 M=9
 9 harmonic 0.117722 1 3   # H_ C_3 C_3 H_ M=9
 10 harmonic 0.117722 1 3   # C_3 C_3 C_3 H_ M=9

Atoms

 1 1 1   0.000000   2.481771   0.000000   0.000000   # Zr3+4
 2 1 1   0.000000   2.481771  10.350200  10.350200   # Zr3+4
 3 1 1   0.000000  12.831971   0.000000  10.350200   # Zr3+4
 4 1 1   0.000000  12.831971  10.350200   0.000000   # Zr3+4
 5 1 1   0.000000  18.218629   0.000000   0.000000   # Zr3+4
 6 1 1   0.000000  18.218629  10.350200  10.350200   # Zr3+4
 7 1 1   0.000000   7.868429   0.000000  10.350200   # Zr3+4
 8 1 1   0.000000   7.868429  10.350200   0.000000   # Zr3+4
 9 1 1   0.000000   0.000000   2.481771   0.000000   # Zr3+4
 10 1 1   0.000000   0.000000  12.831971  10.350200   # Zr3+4
 11 1 1   0.000000  10.350200   2.481771  10.350200   # Zr3+4
 12 1 1   0.000000  10.350200  12.831971   0.000000   # Zr3+4
 13 1 1   0.000000   0.000000  18.218629   0.000000   # Zr3+4
 14 1 1   0.000000   0.000000   7.868429  10.350200   # Zr3+4
 15 1 1   0.000000  10.350200  18.218629  10.350200   # Zr3+4
 16 1 1   0.000000  10.350200   7.868429   0.000000   # Zr3+4
 17 1 1   0.000000   0.000000   0.000000   2.481771   # Zr3+4
 18 1 1   0.000000   0.000000  10.350200  12.831971   # Zr3+4
 19 1 1   0.000000  10.350200   0.000000  12.831971   # Zr3+4
 20 1 1   0.000000  10.350200  10.350200   2.481771   # Zr3+4
 21 1 1   0.000000   0.000000   0.000000  18.218629   # Zr3+4
 22 1 1   0.000000   0.000000  10.350200   7.868429   # Zr3+4
 23 1 1   0.000000  10.350200   0.000000   7.868429   # Zr3+4
 24 1 1   0.000000  10.350200  10.350200  18.218629   # Zr3+4
 25 1 2   0.000000   1.161292   9.188908   9.188908   # O_3
 26 1 2   0.000000  11.511492  19.539108   9.188908   # O_3
 27 1 2   0.000000  11.511492   9.188908  19.539108   # O_3
 28 1 2   0.000000   9.188908   1.161292   9.188908   # O_3
 29 1 2   0.000000   9.188908  11.511492  19.539108   # O_3
 30 1 2   0.000000  19.539108  19.539108   1.161292   # O_3
 31 1 2   0.000000  19.539108   9.188908  11.511492   # O_3
 32 1 2   0.000000   1.161292   1.161292   1.161292   # O_3
 33 1 2   0.000000  11.511492  11.511492   1.161292   # O_3
 34 1 2   0.000000  19.539108   1.161292   1.161292   # O_3
 35 1 2   0.000000  19.539108  11.511492  11.511492   # O_3
 36 1 2   0.000000   9.188908   1.161292  11.511492   # O_3
 37 1 2   0.000000   9.188908  11.511492   1.161292   # O_3
 38 1 2   0.000000   1.161292  19.539108   1.161292   # O_3
 39 1 2   0.000000   1.161292   9.188908  11.511492   # O_3
 40 1 2   0.000000  11.511492  19.539108  11.511492   # O_3
 41 1 2   0.000000  11.511492   9.188908   1.161292   # O_3
 42 1 2   0.000000  19.539108  19.539108  19.539108   # O_3
 43 1 2   0.000000  19.539108   9.188908   9.188908   # O_3
 44 1 2   0.000000   9.188908  19.539108   9.188908   # O_3
 45 1 2   0.000000   9.188908   9.188908  19.539108   # O_3
 46 1 2   0.000000   1.161292   1.161292  19.539108   # O_3
 47 1 2   0.000000   1.161292  11.511492   9.188908   # O_3
 48 1 2   0.000000  11.511492   1.161292   9.188908   # O_3
 49 1 6   0.000000   3.179581   0.000000  17.520819   # C_2
 50 1 9   0.000000   3.528595   0.000000  18.727815   # O_1
 51 1 9   0.000000   1.972577  20.700400  17.171832   # O_1
 52 1 8   0.000000   4.243569   0.000000  16.456806   # C_R
 53 1 8   0.000000   3.816555  20.700400  15.162811   # C_R
 54 1 5   0.000000   2.700552  20.700400  14.930824   # H_
 55 2 10   0.000000   4.450423  20.700385  12.849267   # O_3
 56 1 8   0.000000   4.812543  20.700400  14.167800   # C_R
 57 1 8   0.000000   6.106548   0.000000  14.593785   # C_R
 58 1 8   0.000000   6.532563   0.000000  15.887781   # C_R
 59 1 8   0.000000   5.537574   0.000000  16.883792   # C_R
 60 2 10   0.000000   5.892658   0.000018  18.201639   # O_3
 61 1 5   0.000000   7.648566   0.000000  16.119768   # H_
 62 1 9   0.000000   8.377540   0.000000  13.878760   # O_1
 63 1 6   0.000000   7.170536   0.000000  13.529773   # C_2
 64 1 9   0.000000   6.821523  20.700400  12.322777   # O_1
 65 2 7   0.000000   3.072489   0.000129  12.499887   # C_3
 66 2 7   0.000000   2.962704   0.000195  10.977956   # C_3
 67 2 5   0.000000   2.582895   0.900274  12.890997   # H_
 68 2 5   0.000000   2.582729  19.800451  12.890932   # H_
 69 2 5   0.000000   3.481583   0.876271  10.571102   # H_
 70 2 7   0.000000   1.513209   0.000341  10.523448   # C_3
 71 2 5   0.000000   3.481423  19.824447  10.571040   # H_
 72 2 5   0.000000   0.987077   0.887285  10.891170   # H_
 73 2 5   0.000000   0.986915  19.813872  10.891110   # H_
 74 2 5   0.000000   1.456490   0.000384   9.430670   # H_
 75 2 7   0.000000   7.264250  20.700265  18.570328   # C_3
 76 2 7   0.000000   7.335715   0.000032  20.095200   # C_3
 77 2 5   0.000000   7.760651   0.899817  18.187748   # H_
 78 2 5   0.000000   7.760548  19.800516  18.187758   # H_
 79 2 5   0.000000   6.804888   0.875535  20.487934   # H_
 80 2 7   0.000000   8.769620  20.700222  20.594003   # C_3
 81 2 5   0.000000   6.804783  19.824726  20.487949   # H_
 82 2 5   0.000000   9.306713   0.887161  20.243857   # H_
 83 2 5   0.000000   9.306619  19.812997  20.243871   # H_
 84 2 5   0.000000   8.790774  20.700280   0.987842   # H_
 85 1 6   0.000000   3.179581  10.350200   7.170619   # C_2
 86 1 9   0.000000   3.528595  10.350200   8.377615   # O_1
 87 1 9   0.000000   1.972577  10.350200   6.821632   # O_1
 88 1 8   0.000000   4.243569  10.350200   6.106606   # C_R
 89 1 8   0.000000   3.816555  10.350200   4.812611   # C_R
 90 1 5   0.000000   2.700552  10.350200   4.580624   # H_
 91 2 10   0.000000   4.450423  10.350185   2.499067   # O_3
 92 1 8   0.000000   4.812543  10.350200   3.817600   # C_R
 93 1 8   0.000000   6.106548  10.350200   4.243585   # C_R
 94 1 8   0.000000   6.532563  10.350200   5.537581   # C_R
 95 1 8   0.000000   5.537574  10.350200   6.533592   # C_R
 96 2 10   0.000000   5.892658  10.350218   7.851439   # O_3
 97 1 5   0.000000   7.648566  10.350200   5.769568   # H_
 98 1 9   0.000000   8.377540  10.350200   3.528560   # O_1
 99 1 6   0.000000   7.170536  10.350200   3.179573   # C_2
 100 1 9   0.000000   6.821523  10.350200   1.972577   # O_1
 101 2 7   0.000000   3.072489  10.350329   2.149687   # C_3
 102 2 7   0.000000   2.962704  10.350395   0.627756   # C_3
 103 2 5   0.000000   2.582895  11.250474   2.540797   # H_
 104 2 5   0.000000   2.582729   9.450251   2.540732   # H_
 105 2 5   0.000000   3.481583  11.226471   0.220902   # H_
 106 2 7   0.000000   1.513209  10.350541   0.173248   # C_3
 107 2 5   0.000000   3.481423   9.474247   0.220840   # H_
 108 2 5   0.000000   0.987077  11.237485   0.540970   # H_
 109 2 5   0.000000   0.986915   9.463672   0.540910   # H_
 110 2 5   0.000000   1.456490  10.350584  19.780870   # H_
 111 2 7   0.000000   7.264250  10.350065   8.220128   # C_3
 112 2 7   0.000000   7.335715  10.350232   9.745000   # C_3
 113 2 5   0.000000   7.760651  11.250017   7.837548   # H_
 114 2 5   0.000000   7.760548   9.450316   7.837558   # H_
 115 2 5   0.000000   6.804888  11.225735  10.137734   # H_
 116 2 7   0.000000   8.769620  10.350022  10.243803   # C_3
 117 2 5   0.000000   6.804783   9.474526  10.137749   # H_
 118 2 5   0.000000   9.306713  11.237361   9.893657   # H_
 119 2 5   0.000000   9.306619   9.462797   9.893671   # H_
 120 2 5   0.000000   8.790774  10.350080  11.338042   # H_
 121 1 6   0.000000  13.529781   0.000000   7.170619   # C_2
 122 1 9   0.000000  13.878795   0.000000   8.377615   # O_1
 123 1 9   0.000000  12.322777  20.700400   6.821632   # O_1
 124 1 8   0.000000  14.593769   0.000000   6.106606   # C_R
 125 1 8   0.000000  14.166755  20.700400   4.812611   # C_R
 126 1 5   0.000000  13.050752  20.700400   4.580624   # H_
 127 2 10   0.000000  14.800623  20.700385   2.499067   # O_3
 128 1 8   0.000000  15.162743  20.700400   3.817600   # C_R
 129 1 8   0.000000  16.456748   0.000000   4.243585   # C_R
 130 1 8   0.000000  16.882763   0.000000   5.537581   # C_R
 131 1 8   0.000000  15.887774   0.000000   6.533592   # C_R
 132 2 10   0.000000  16.242858   0.000018   7.851439   # O_3
 133 1 5   0.000000  17.998766   0.000000   5.769568   # H_
 134 1 9   0.000000  18.727740   0.000000   3.528560   # O_1
 135 1 6   0.000000  17.520736   0.000000   3.179573   # C_2
 136 1 9   0.000000  17.171723  20.700400   1.972577   # O_1
 137 2 7   0.000000  13.422689   0.000129   2.149687   # C_3
 138 2 7   0.000000  13.312904   0.000195   0.627756   # C_3
 139 2 5   0.000000  12.933095   0.900274   2.540797   # H_
 140 2 5   0.000000  12.932929  19.800451   2.540732   # H_
 141 2 5   0.000000  13.831783   0.876271   0.220902   # H_
 142 2 7   0.000000  11.863409   0.000341   0.173248   # C_3
 143 2 5   0.000000  13.831623  19.824447   0.220840   # H_
 144 2 5   0.000000  11.337277   0.887285   0.540970   # H_
 145 2 5   0.000000  11.337115  19.813872   0.540910   # H_
 146 2 5   0.000000  11.806690   0.000384  19.780870   # H_
 147 2 7   0.000000  17.614450  20.700265   8.220128   # C_3
 148 2 7   0.000000  17.685915   0.000032   9.745000   # C_3
 149 2 5   0.000000  18.110851   0.899817   7.837548   # H_
 150 2 5   0.000000  18.110748  19.800516   7.837558   # H_
 151 2 5   0.000000  17.155088   0.875535  10.137734   # H_
 152 2 7   0.000000  19.119820  20.700222  10.243803   # C_3
 153 2 5   0.000000  17.154983  19.824726  10.137749   # H_
 154 2 5   0.000000  19.656913   0.887161   9.893657   # H_
 155 2 5   0.000000  19.656819  19.812997   9.893671   # H_
 156 2 5   0.000000  19.140974  20.700280  11.338042   # H_
 157 1 6   0.000000  13.529781  10.350200  17.520819   # C_2
 158 1 9   0.000000  13.878795  10.350200  18.727815   # O_1
 159 1 9   0.000000  12.322777  10.350200  17.171832   # O_1
 160 1 8   0.000000  14.593769  10.350200  16.456806   # C_R
 161 1 8   0.000000  14.166755  10.350200  15.162811   # C_R
 162 1 5   0.000000  13.050752  10.350200  14.930824   # H_
 163 2 10   0.000000  14.800623  10.350185  12.849267   # O_3
 164 1 8   0.000000  15.162743  10.350200  14.167800   # C_R
 165 1 8   0.000000  16.456748  10.350200  14.593785   # C_R
 166 1 8   0.000000  16.882763  10.350200  15.887781   # C_R
 167 1 8   0.000000  15.887774  10.350200  16.883792   # C_R
 168 2 10   0.000000  16.242858  10.350218  18.201639   # O_3
 169 1 5   0.000000  17.998766  10.350200  16.119768   # H_
 170 1 9   0.000000  18.727740  10.350200  13.878760   # O_1
 171 1 6   0.000000  17.520736  10.350200  13.529773   # C_2
 172 1 9   0.000000  17.171723  10.350200  12.322777   # O_1
 173 2 7   0.000000  13.422689  10.350329  12.499887   # C_3
 174 2 7   0.000000  13.312904  10.350395  10.977956   # C_3
 175 2 5   0.000000  12.933095  11.250474  12.890997   # H_
 176 2 5   0.000000  12.932929   9.450251  12.890932   # H_
 177 2 5   0.000000  13.831783  11.226471  10.571102   # H_
 178 2 7   0.000000  11.863409  10.350541  10.523448   # C_3
 179 2 5   0.000000  13.831623   9.474247  10.571040   # H_
 180 2 5   0.000000  11.337277  11.237485  10.891170   # H_
 181 2 5   0.000000  11.337115   9.463672  10.891110   # H_
 182 2 5   0.000000  11.806690  10.350584   9.430670   # H_
 183 2 7   0.000000  17.614450  10.350065  18.570328   # C_3
 184 2 7   0.000000  17.685915  10.350232  20.095200   # C_3
 185 2 5   0.000000  18.110851  11.250017  18.187748   # H_
 186 2 5   0.000000  18.110748   9.450316  18.187758   # H_
 187 2 5   0.000000  17.155088  11.225735  20.487934   # H_
 188 2 7   0.000000  19.119820  10.350022  20.594003   # C_3
 189 2 5   0.000000  17.154983   9.474526  20.487949   # H_
 190 2 5   0.000000  19.656913  11.237361  20.243857   # H_
 191 2 5   0.000000  19.656819   9.462797  20.243871   # H_
 192 2 5   0.000000  19.140974  10.350080   0.987842   # H_
 193 1 6   0.000000  17.520819   0.000000  17.520819   # C_2
 194 1 9   0.000000  17.171805   0.000000  18.727815   # O_1
 195 1 9   0.000000  18.727823   0.000000  17.171832   # O_1
 196 1 8   0.000000  16.456831   0.000000  16.456806   # C_R
 197 1 8   0.000000  16.883845   0.000000  15.162811   # C_R
 198 1 5   0.000000  17.999848   0.000000  14.930824   # H_
 199 2 10   0.000000  16.249977   0.000015  12.849267   # O_3
 200 1 8   0.000000  15.887857   0.000000  14.167800   # C_R
 201 1 8   0.000000  14.593852   0.000000  14.593785   # C_R
 202 1 8   0.000000  14.167837   0.000000  15.887781   # C_R
 203 1 8   0.000000  15.162826   0.000000  16.883792   # C_R
 204 2 10   0.000000  14.807742  20.700382  18.201639   # O_3
 205 1 5   0.000000  13.051834   0.000000  16.119768   # H_
 206 1 9   0.000000  12.322860   0.000000  13.878760   # O_1
 207 1 6   0.000000  13.529864   0.000000  13.529773   # C_2
 208 1 9   0.000000  13.878877   0.000000  12.322777   # O_1
 209 2 7   0.000000  17.627911  20.700271  12.499887   # C_3
 210 2 7   0.000000  17.737696  20.700205  10.977956   # C_3
 211 2 5   0.000000  18.117505  19.800126  12.890997   # H_
 212 2 5   0.000000  18.117671   0.899949  12.890932   # H_
 213 2 5   0.000000  17.218817  19.824129  10.571102   # H_
 214 2 7   0.000000  19.187191  20.700059  10.523448   # C_3
 215 2 5   0.000000  17.218977   0.875953  10.571040   # H_
 216 2 5   0.000000  19.713323  19.813115  10.891170   # H_
 217 2 5   0.000000  19.713485   0.886528  10.891110   # H_
 218 2 5   0.000000  19.243910  20.700016   9.430670   # H_
 219 2 7   0.000000  13.436150   0.000135  18.570328   # C_3
 220 2 7   0.000000  13.364685  20.700368  20.095200   # C_3
 221 2 5   0.000000  12.939749  19.800583  18.187748   # H_
 222 2 5   0.000000  12.939852   0.899884  18.187758   # H_
 223 2 5   0.000000  13.895512  19.824865  20.487934   # H_
 224 2 7   0.000000  11.930780   0.000178  20.594003   # C_3
 225 2 5   0.000000  13.895617   0.875674  20.487949   # H_
 226 2 5   0.000000  11.393687  19.813239  20.243857   # H_
 227 2 5   0.000000  11.393781   0.887403  20.243871   # H_
 228 2 5   0.000000  11.909626   0.000120   0.987842   # H_
 229 1 6   0.000000  17.520819  10.350200   7.170619   # C_2
 230 1 9   0.000000  17.171805  10.350200   8.377615   # O_1
 231 1 9   0.000000  18.727823  10.350200   6.821632   # O_1
 232 1 8   0.000000  16.456831  10.350200   6.106606   # C_R
 233 1 8   0.000000  16.883845  10.350200   4.812611   # C_R
 234 1 5   0.000000  17.999848  10.350200   4.580624   # H_
 235 2 10   0.000000  16.249977  10.350215   2.499067   # O_3
 236 1 8   0.000000  15.887857  10.350200   3.817600   # C_R
 237 1 8   0.000000  14.593852  10.350200   4.243585   # C_R
 238 1 8   0.000000  14.167837  10.350200   5.537581   # C_R
 239 1 8   0.000000  15.162826  10.350200   6.533592   # C_R
 240 2 10   0.000000  14.807742  10.350182   7.851439   # O_3
 241 1 5   0.000000  13.051834  10.350200   5.769568   # H_
 242 1 9   0.000000  12.322860  10.350200   3.528560   # O_1
 243 1 6   0.000000  13.529864  10.350200   3.179573   # C_2
 244 1 9   0.000000  13.878877  10.350200   1.972577   # O_1
 245 2 7   0.000000  17.627911  10.350071   2.149687   # C_3
 246 2 7   0.000000  17.737696  10.350005   0.627756   # C_3
 247 2 5   0.000000  18.117505   9.449926   2.540797   # H_
 248 2 5   0.000000  18.117671  11.250149   2.540732   # H_
 249 2 5   0.000000  17.218817   9.473929   0.220902   # H_
 250 2 7   0.000000  19.187191  10.349859   0.173248   # C_3
 251 2 5   0.000000  17.218977  11.226153   0.220840   # H_
 252 2 5   0.000000  19.713323   9.462915   0.540970   # H_
 253 2 5   0.000000  19.713485  11.236728   0.540910   # H_
 254 2 5   0.000000  19.243910  10.349816  19.780870   # H_
 255 2 7   0.000000  13.436150  10.350335   8.220128   # C_3
 256 2 7   0.000000  13.364685  10.350168   9.745000   # C_3
 257 2 5   0.000000  12.939749   9.450383   7.837548   # H_
 258 2 5   0.000000  12.939852  11.250084   7.837558   # H_
 259 2 5   0.000000  13.895512   9.474665  10.137734   # H_
 260 2 7   0.000000  11.930780  10.350378  10.243803   # C_3
 261 2 5   0.000000  13.895617  11.225874  10.137749   # H_
 262 2 5   0.000000  11.393687   9.463039   9.893657   # H_
 263 2 5   0.000000  11.393781  11.237603   9.893671   # H_
 264 2 5   0.000000  11.909626  10.350320  11.338042   # H_
 265 1 6   0.000000   7.170619   0.000000   7.170619   # C_2
 266 1 9   0.000000   6.821605   0.000000   8.377615   # O_1
 267 1 9   0.000000   8.377623   0.000000   6.821632   # O_1
 268 1 8   0.000000   6.106631   0.000000   6.106606   # C_R
 269 1 8   0.000000   6.533645   0.000000   4.812611   # C_R
 270 1 5   0.000000   7.649648   0.000000   4.580624   # H_
 271 2 10   0.000000   5.899777   0.000015   2.499067   # O_3
 272 1 8   0.000000   5.537657   0.000000   3.817600   # C_R
 273 1 8   0.000000   4.243652   0.000000   4.243585   # C_R
 274 1 8   0.000000   3.817637   0.000000   5.537581   # C_R
 275 1 8   0.000000   4.812626   0.000000   6.533592   # C_R
 276 2 10   0.000000   4.457542  20.700382   7.851439   # O_3
 277 1 5   0.000000   2.701634   0.000000   5.769568   # H_
 278 1 9   0.000000   1.972660   0.000000   3.528560   # O_1
 279 1 6   0.000000   3.179664   0.000000   3.179573   # C_2
 280 1 9   0.000000   3.528677   0.000000   1.972577   # O_1
 281 2 7   0.000000   7.277711  20.700271   2.149687   # C_3
 282 2 7   0.000000   7.387496  20.700205   0.627756   # C_3
 283 2 5   0.000000   7.767305  19.800126   2.540797   # H_
 284 2 5   0.000000   7.767471   0.899949   2.540732   # H_
 285 2 5   0.000000   6.868617  19.824129   0.220902   # H_
 286 2 7   0.000000   8.836991  20.700059   0.173248   # C_3
 287 2 5   0.000000   6.868777   0.875953   0.220840   # H_
 288 2 5   0.000000   9.363123  19.813115   0.540970   # H_
 289 2 5   0.000000   9.363285   0.886528   0.540910   # H_
 290 2 5   0.000000   8.893710  20.700016  19.780870   # H_
 291 2 7   0.000000   3.085950   0.000135   8.220128   # C_3
 292 2 7   0.000000   3.014485  20.700368   9.745000   # C_3
 293 2 5   0.000000   2.589549  19.800583   7.837548   # H_
 294 2 5   0.000000   2.589652   0.899884   7.837558   # H_
 295 2 5   0.000000   3.545312  19.824865  10.137734   # H_
 296 2 7   0.000000   1.580580   0.000178  10.243803   # C_3
 297 2 5   0.000000   3.545417   0.875674  10.137749   # H_
 298 2 5   0.000000   1.043487  19.813239   9.893657   # H_
 299 2 5   0.000000   1.043581   0.887403   9.893671   # H_
 300 2 5   0.000000   1.559426   0.000120  11.338042   # H_
 301 1 6   0.000000   7.170619  10.350200  17.520819   # C_2
 302 1 9   0.000000   6.821605  10.350200  18.727815   # O_1
 303 1 9   0.000000   8.377623  10.350200  17.171832   # O_1
 304 1 8   0.000000   6.106631  10.350200  16.456806   # C_R
 305 1 8   0.000000   6.533645  10.350200  15.162811   # C_R
 306 1 5   0.000000   7.649648  10.350200  14.930824   # H_
 307 2 10   0.000000   5.899777  10.350215  12.849267   # O_3
 308 1 8   0.000000   5.537657  10.350200  14.167800   # C_R
 309 1 8   0.000000   4.243652  10.350200  14.593785   # C_R
 310 1 8   0.000000   3.817637  10.350200  15.887781   # C_R
 311 1 8   0.000000   4.812626  10.350200  16.883792   # C_R
 312 2 10   0.000000   4.457542  10.350182  18.201639   # O_3
 313 1 5   0.000000   2.701634  10.350200  16.119768   # H_
 314 1 9   0.000000   1.972660  10.350200  13.878760   # O_1
 315 1 6   0.000000   3.179664  10.350200  13.529773   # C_2
 316 1 9   0.000000   3.528677  10.350200  12.322777   # O_1
 317 2 7   0.000000   7.277711  10.350071  12.499887   # C_3
 318 2 7   0.000000   7.387496  10.350005  10.977956   # C_3
 319 2 5   0.000000   7.767305   9.449926  12.890997   # H_
 320 2 5   0.000000   7.767471  11.250149  12.890932   # H_
 321 2 5   0.000000   6.868617   9.473929  10.571102   # H_
 322 2 7   0.000000   8.836991  10.349859  10.523448   # C_3
 323 2 5   0.000000   6.868777  11.226153  10.571040   # H_
 324 2 5   0.000000   9.363123   9.462915  10.891170   # H_
 325 2 5   0.000000   9.363285  11.236728  10.891110   # H_
 326 2 5   0.000000   8.893710  10.349816   9.430670   # H_
 327 2 7   0.000000   3.085950  10.350335  18.570328   # C_3
 328 2 7   0.000000   3.014485  10.350168  20.095200   # C_3
 329 2 5   0.000000   2.589549   9.450383  18.187748   # H_
 330 2 5   0.000000   2.589652  11.250084  18.187758   # H_
 331 2 5   0.000000   3.545312   9.474665  20.487934   # H_
 332 2 7   0.000000   1.580580  10.350378  20.594003   # C_3
 333 2 5   0.000000   3.545417  11.225874  20.487949   # H_
 334 2 5   0.000000   1.043487   9.463039  20.243857   # H_
 335 2 5   0.000000   1.043581  11.237603  20.243871   # H_
 336 2 5   0.000000   1.559426  10.350320   0.987842   # H_
 337 1 6   0.000000  17.520819   3.179581   0.000000   # C_2
 338 1 9   0.000000  18.727815   3.528595  20.700400   # O_1
 339 1 9   0.000000  17.171832   1.972577   0.000000   # O_1
 340 1 8   0.000000  16.456806   4.243569  20.700400   # C_R
 341 1 8   0.000000  15.162811   3.816555   0.000000   # C_R
 342 1 5   0.000000  14.930824   2.700552   0.000000   # H_
 343 2 10   0.000000  12.849267   4.450423  20.700385   # O_3
 344 1 8   0.000000  14.167800   4.812543   0.000000   # C_R
 345 1 8   0.000000  14.593785   6.106548  20.700400   # C_R
 346 1 8   0.000000  15.887781   6.532563  20.700400   # C_R
 347 1 8   0.000000  16.883792   5.537574  20.700400   # C_R
 348 2 10   0.000000  18.201639   5.892658   0.000018   # O_3
 349 1 5   0.000000  16.119768   7.648566  20.700400   # H_
 350 1 9   0.000000  13.878760   8.377540  20.700400   # O_1
 351 1 6   0.000000  13.529773   7.170536  20.700400   # C_2
 352 1 9   0.000000  12.322777   6.821523   0.000000   # O_1
 353 2 7   0.000000  12.499887   3.072489   0.000129   # C_3
 354 2 7   0.000000  10.977956   2.962704   0.000195   # C_3
 355 2 5   0.000000  12.890997   2.582895   0.900274   # H_
 356 2 5   0.000000  12.890932   2.582729  19.800451   # H_
 357 2 5   0.000000  10.571102   3.481583   0.876271   # H_
 358 2 7   0.000000  10.523448   1.513209   0.000341   # C_3
 359 2 5   0.000000  10.571040   3.481423  19.824447   # H_
 360 2 5   0.000000  10.891170   0.987077   0.887285   # H_
 361 2 5   0.000000  10.891110   0.986915  19.813872   # H_
 362 2 5   0.000000   9.430670   1.456490   0.000384   # H_
 363 2 7   0.000000  18.570328   7.264250  20.700265   # C_3
 364 2 7   0.000000  20.095200   7.335715   0.000032   # C_3
 365 2 5   0.000000  18.187748   7.760651   0.899817   # H_
 366 2 5   0.000000  18.187758   7.760548  19.800516   # H_
 367 2 5   0.000000  20.487934   6.804888   0.875535   # H_
 368 2 7   0.000000  20.594003   8.769620  20.700222   # C_3
 369 2 5   0.000000  20.487949   6.804783  19.824726   # H_
 370 2 5   0.000000  20.243857   9.306713   0.887161   # H_
 371 2 5   0.000000  20.243871   9.306619  19.812997   # H_
 372 2 5   0.000000   0.987842   8.790774  20.700280   # H_
 373 1 6   0.000000  17.520819  13.529781  10.350200   # C_2
 374 1 9   0.000000  18.727815  13.878795  10.350200   # O_1
 375 1 9   0.000000  17.171832  12.322777  10.350200   # O_1
 376 1 8   0.000000  16.456806  14.593769  10.350200   # C_R
 377 1 8   0.000000  15.162811  14.166755  10.350200   # C_R
 378 1 5   0.000000  14.930824  13.050752  10.350200   # H_
 379 2 10   0.000000  12.849267  14.800623  10.350185   # O_3
 380 1 8   0.000000  14.167800  15.162743  10.350200   # C_R
 381 1 8   0.000000  14.593785  16.456748  10.350200   # C_R
 382 1 8   0.000000  15.887781  16.882763  10.350200   # C_R
 383 1 8   0.000000  16.883792  15.887774  10.350200   # C_R
 384 2 10   0.000000  18.201639  16.242858  10.350218   # O_3
 385 1 5   0.000000  16.119768  17.998766  10.350200   # H_
 386 1 9   0.000000  13.878760  18.727740  10.350200   # O_1
 387 1 6   0.000000  13.529773  17.520736  10.350200   # C_2
 388 1 9   0.000000  12.322777  17.171723  10.350200   # O_1
 389 2 7   0.000000  12.499887  13.422689  10.350329   # C_3
 390 2 7   0.000000  10.977956  13.312904  10.350395   # C_3
 391 2 5   0.000000  12.890997  12.933095  11.250474   # H_
 392 2 5   0.000000  12.890932  12.932929   9.450251   # H_
 393 2 5   0.000000  10.571102  13.831783  11.226471   # H_
 394 2 7   0.000000  10.523448  11.863409  10.350541   # C_3
 395 2 5   0.000000  10.571040  13.831623   9.474247   # H_
 396 2 5   0.000000  10.891170  11.337277  11.237485   # H_
 397 2 5   0.000000  10.891110  11.337115   9.463672   # H_
 398 2 5   0.000000   9.430670  11.806690  10.350584   # H_
 399 2 7   0.000000  18.570328  17.614450  10.350065   # C_3
 400 2 7   0.000000  20.095200  17.685915  10.350232   # C_3
 401 2 5   0.000000  18.187748  18.110851  11.250017   # H_
 402 2 5   0.000000  18.187758  18.110748   9.450316   # H_
 403 2 5   0.000000  20.487934  17.155088  11.225735   # H_
 404 2 7   0.000000  20.594003  19.119820  10.350022   # C_3
 405 2 5   0.000000  20.487949  17.154983   9.474526   # H_
 406 2 5   0.000000  20.243857  19.656913  11.237361   # H_
 407 2 5   0.000000  20.243871  19.656819   9.462797   # H_
 408 2 5   0.000000   0.987842  19.140974  10.350080   # H_
 409 1 6   0.000000   7.170619   3.179581  10.350200   # C_2
 410 1 9   0.000000   8.377615   3.528595  10.350200   # O_1
 411 1 9   0.000000   6.821632   1.972577  10.350200   # O_1
 412 1 8   0.000000   6.106606   4.243569  10.350200   # C_R
 413 1 8   0.000000   4.812611   3.816555  10.350200   # C_R
 414 1 5   0.000000   4.580624   2.700552  10.350200   # H_
 415 2 10   0.000000   2.499067   4.450423  10.350185   # O_3
 416 1 8   0.000000   3.817600   4.812543  10.350200   # C_R
 417 1 8   0.000000   4.243585   6.106548  10.350200   # C_R
 418 1 8   0.000000   5.537581   6.532563  10.350200   # C_R
 419 1 8   0.000000   6.533592   5.537574  10.350200   # C_R
 420 2 10   0.000000   7.851439   5.892658  10.350218   # O_3
 421 1 5   0.000000   5.769568   7.648566  10.350200   # H_
 422 1 9   0.000000   3.528560   8.377540  10.350200   # O_1
 423 1 6   0.000000   3.179573   7.170536  10.350200   # C_2
 424 1 9   0.000000   1.972577   6.821523  10.350200   # O_1
 425 2 7   0.000000   2.149687   3.072489  10.350329   # C_3
 426 2 7   0.000000   0.627756   2.962704  10.350395   # C_3
 427 2 5   0.000000   2.540797   2.582895  11.250474   # H_
 428 2 5   0.000000   2.540732   2.582729   9.450251   # H_
 429 2 5   0.000000   0.220902   3.481583  11.226471   # H_
 430 2 7   0.000000   0.173248   1.513209  10.350541   # C_3
 431 2 5   0.000000   0.220840   3.481423   9.474247   # H_
 432 2 5   0.000000   0.540970   0.987077  11.237485   # H_
 433 2 5   0.000000   0.540910   0.986915   9.463672   # H_
 434 2 5   0.000000  19.780870   1.456490  10.350584   # H_
 435 2 7   0.000000   8.220128   7.264250  10.350065   # C_3
 436 2 7   0.000000   9.745000   7.335715  10.350232   # C_3
 437 2 5   0.000000   7.837548   7.760651  11.250017   # H_
 438 2 5   0.000000   7.837558   7.760548   9.450316   # H_
 439 2 5   0.000000  10.137734   6.804888  11.225735   # H_
 440 2 7   0.000000  10.243803   8.769620  10.350022   # C_3
 441 2 5   0.000000  10.137749   6.804783   9.474526   # H_
 442 2 5   0.000000   9.893657   9.306713  11.237361   # H_
 443 2 5   0.000000   9.893671   9.306619   9.462797   # H_
 444 2 5   0.000000  11.338042   8.790774  10.350080   # H_
 445 1 6   0.000000   7.170619  13.529781   0.000000   # C_2
 446 1 9   0.000000   8.377615  13.878795   0.000000   # O_1
 447 1 9   0.000000   6.821632  12.322777  20.700400   # O_1
 448 1 8   0.000000   6.106606  14.593769   0.000000   # C_R
 449 1 8   0.000000   4.812611  14.166755   0.000000   # C_R
 450 1 5   0.000000   4.580624  13.050752  20.700400   # H_
 451 2 10   0.000000   2.499067  14.800623  20.700385   # O_3
 452 1 8   0.000000   3.817600  15.162743   0.000000   # C_R
 453 1 8   0.000000   4.243585  16.456748   0.000000   # C_R
 454 1 8   0.000000   5.537581  16.882763   0.000000   # C_R
 455 1 8   0.000000   6.533592  15.887774   0.000000   # C_R
 456 2 10   0.000000   7.851439  16.242858   0.000018   # O_3
 457 1 5   0.000000   5.769568  17.998766   0.000000   # H_
 458 1 9   0.000000   3.528560  18.727740   0.000000   # O_1
 459 1 6   0.000000   3.179573  17.520736   0.000000   # C_2
 460 1 9   0.000000   1.972577  17.171723   0.000000   # O_1
 461 2 7   0.000000   2.149687  13.422689   0.000129   # C_3
 462 2 7   0.000000   0.627756  13.312904   0.000195   # C_3
 463 2 5   0.000000   2.540797  12.933095   0.900274   # H_
 464 2 5   0.000000   2.540732  12.932929  19.800451   # H_