 (written by mofun)

672 atoms
264 bonds
504 angles
648 dihedrals
0 impropers

10 atom types
4 bond types
7 angle types
10 dihedral types
   0.000000  20.700400 xlo xhi
   0.000000  20.700400 ylo yhi
   0.000000  20.700400 zlo zhi

Masses

 1 91.2240   # Zr3+4
 2 15.9994   # O_3
 3 12.0107   # C_3
 4 1.0079   # H_
 5 1.0079   # H_
 6 12.0107   # C_2
 7 12.0107   # C_3
 8 12.0107   # C_R
 9 15.9994   # O_1
 10 15.9994   # O_3

Pair Coeffs

 1   0.069000   2.783168 # Zr3+4
 2   0.060000   3.118146 # O_3
 3   0.105000   3.430851 # C_3
 4   0.044000   2.571134 # H_
 5 0.044000 2.571134   # H_
 6 0.105000 3.430851   # C_2
 7 0.105000 3.430851   # C_3
 8 0.105000 3.430851   # C_R
 9 0.060000 3.118146   # O_1
 10 0.060000 3.118146   # O_3

Bond Coeffs

 1 572.510195 1.366311   # C_R O_3
 2 539.248552 1.393845   # C_3 O_3
 3 349.795899 1.514000   # C_3 C_3
 4 331.069389 1.109401   # C_3 H_

Angle Coeffs

 1 cosine/periodic  271.563462  -1  3   # C_R C_R O_3
 2 fourier  320.948910  0.300235  0.267331  0.266745   # C_3 O_3 C_R
 3 fourier  290.032745  0.343737  0.374972  0.281246   # C_3 C_3 O_3
 4 fourier  165.777838  0.343737  0.374972  0.281246   # H_ C_3 O_3
 5 fourier  117.318683  0.343737  0.374972  0.281246   # C_3 C_3 H_
 6 fourier  75.498766  0.343737  0.374972  0.281246   # H_ C_3 H_
 7 fourier  214.211821  0.343737  0.374972  0.281246   # C_3 C_3 C_3

Dihedral Coeffs

 1 harmonic 3.368555 -1 2   # C_R C_R C_R O_3 M=4
 2 harmonic 3.368555 -1 2   # H_ C_R C_R O_3 M=4
 3 harmonic 3.368555 -1 2   # C_2 C_R C_R O_3 M=4
 4 harmonic 2.500000 1 2   # C_3 O_3 C_R C_R M=2
 5 harmonic 0.032550 1 3   # C_3 C_3 O_3 C_R M=3
 6 harmonic 0.032550 1 3   # C_R O_3 C_3 H_ M=3
 7 harmonic 0.117722 1 3   # H_ C_3 C_3 O_3 M=9
 8 harmonic 0.117722 1 3   # C_3 C_3 C_3 O_3 M=9
 9 harmonic 0.117722 1 3   # H_ C_3 C_3 H_ M=9
 10 harmonic 0.117722 1 3   # C_3 C_3 C_3 H_ M=9

Atoms

 1 1 1   0.000000   2.481771   0.000000   0.000000   # Zr3+4
 2 1 1   0.000000   2.481771  10.350200  10.350200   # Zr3+4
 3 1 1   0.000000  12.831971   0.000000  10.350200   # Zr3+4
 4 1 1   0.000000  12.831971  10.350200   0.000000   # Zr3+4
 5 1 1   0.000000  18.218629   0.000000   0.000000   # Zr3+4
 6 1 1   0.000000  18.218629  10.350200  10.350200   # Zr3+4
 7 1 1   0.000000   7.868429   0.000000  10.350200   # Zr3+4
 8 1 1   0.000000   7.868429  10.350200   0.000000   # Zr3+4
 9 1 1   0.000000   0.000000   2.481771   0.000000   # Zr3+4
 10 1 1   0.000000   0.000000  12.831971  10.350200   # Zr3+4
 11 1 1   0.000000  10.350200   2.481771  10.350200   # Zr3+4
 12 1 1   0.000000  10.350200  12.831971   0.000000   # Zr3+4
 13 1 1   0.000000   0.000000  18.218629   0.000000   # Zr3+4
 14 1 1   0.000000   0.000000   7.868429  10.350200   # Zr3+4
 15 1 1   0.000000  10.350200  18.218629  10.350200   # Zr3+4
 16 1 1   0.000000  10.350200   7.868429   0.000000   # Zr3+4
 17 1 1   0.000000   0.000000   0.000000   2.481771   # Zr3+4
 18 1 1   0.000000   0.000000  10.350200  12.831971   # Zr3+4
 19 1 1   0.000000  10.350200   0.000000  12.831971   # Zr3+4
 20 1 1   0.000000  10.350200  10.350200   2.481771   # Zr3+4
 21 1 1   0.000000   0.000000   0.000000  18.218629   # Zr3+4
 22 1 1   0.000000   0.000000  10.350200   7.868429   # Zr3+4
 23 1 1   0.000000  10.350200   0.000000   7.868429   # Zr3+4
 24 1 1   0.000000  10.350200  10.350200  18.218629   # Zr3+4
 25 1 2   0.000000   1.161292   9.188908   9.188908   # O_3
 26 1 2   0.000000  11.511492  19.539108   9.188908   # O_3
 27 1 2   0.000000  11.511492   9.188908  19.539108   # O_3
 28 1 2   0.000000   9.188908   1.161292   9.188908   # O_3
 29 1 2   0.000000   9.188908  11.511492  19.539108   # O_3
 30 1 2   0.000000  19.539108  19.539108   1.161292   # O_3
 31 1 2   0.000000  19.539108   9.188908  11.511492   # O_3
 32 1 2   0.000000   1.161292   1.161292   1.161292   # O_3
 33 1 2   0.000000  11.511492  11.511492   1.161292   # O_3
 34 1 2   0.000000  19.539108   1.161292   1.161292   # O_3
 35 1 2   0.000000  19.539108  11.511492  11.511492   # O_3
 36 1 2   0.000000   9.188908   1.161292  11.511492   # O_3
 37 1 2   0.000000   9.188908  11.511492   1.161292   # O_3
 38 1 2   0.000000   1.161292  19.539108   1.161292   # O_3
 39 1 2   0.000000   1.161292   9.188908  11.511492   # O_3
 40 1 2   0.000000  11.511492  19.539108  11.511492   # O_3
 41 1 2   0.000000  11.511492   9.188908   1.161292   # O_3
 42 1 2   0.000000  19.539108  19.539108  19.539108   # O_3
 43 1 2   0.000000  19.539108   9.188908   9.188908   # O_3
 44 1 2   0.000000   9.188908  19.539108   9.188908   # O_3
 45 1 2   0.000000   9.188908   9.188908  19.539108   # O_3
 46 1 2   0.000000   1.161292   1.161292  19.539108   # O_3
 47 1 2   0.000000   1.161292  11.511492   9.188908   # O_3
 48 1 2   0.000000  11.511492   1.161292   9.188908   # O_3
 49 1 6   0.000000   3.179581   0.000000  17.520819   # C_2
 50 1 9   0.000000   3.528595   0.000000  18.727815   # O_1
 51 1 9   0.000000   1.972577  20.700400  17.171832   # O_1
 52 1 8   0.000000   4.243569   0.000000  16.456806   # C_R
 53 1 8   0.000000   3.816555  20.700400  15.162811   # C_R
 54 1 5   0.000000   2.700552  20.700400  14.930824   # H_
 55 2 10   0.000000   4.439874  20.700400  12.848405   # O_3
 56 1 8   0.000000   4.812543  20.700400  14.167800   # C_R
 57 1 8   0.000000   6.106548   0.000000  14.593785   # C_R
 58 1 8   0.000000   6.532563   0.000000  15.887781   # C_R
 59 1 8   0.000000   5.537574   0.000000  16.883792   # C_R
 60 1 5   0.000000   5.769587   0.000000  17.999789   # H_
 61 1 5   0.000000   7.648566   0.000000  16.119768   # H_
 62 1 9   0.000000   8.377540   0.000000  13.878760   # O_1
 63 1 6   0.000000   7.170536   0.000000  13.529773   # C_2
 64 1 9   0.000000   6.821523  20.700400  12.322777   # O_1
 65 2 7   0.000000   3.053586   0.000031  12.526902   # C_3
 66 2 7   0.000000   2.887960   0.000302  11.010918   # C_3
 67 2 5   0.000000   2.573914   0.900771  12.929965   # H_
 68 2 5   0.000000   2.573791  19.800018  12.929878   # H_
 69 2 5   0.000000   3.388455   0.876981  10.584013   # H_
 70 2 7   0.000000   1.418136   0.000274  10.621802   # C_3
 71 2 5   0.000000   3.388327  19.823658  10.583929   # H_
 72 2 5   0.000000   0.908776   0.886768  11.014466   # H_
 73 2 5   0.000000   0.908626  19.814448  11.014402   # H_
 74 2 5   0.000000   1.309689   0.000384   9.533219   # H_
 75 1 6   0.000000   3.179581  10.350200   7.170619   # C_2
 76 1 9   0.000000   3.528595  10.350200   8.377615   # O_1
 77 1 9   0.000000   1.972577  10.350200   6.821632   # O_1
 78 1 8   0.000000   4.243569  10.350200   6.106606   # C_R
 79 1 8   0.000000   3.816555  10.350200   4.812611   # C_R
 80 1 5   0.000000   2.700552  10.350200   4.580624   # H_
 81 2 10   0.000000   4.439874  10.350200   2.498205   # O_3
 82 1 8   0.000000   4.812543  10.350200   3.817600   # C_R
 83 1 8   0.000000   6.106548  10.350200   4.243585   # C_R
 84 1 8   0.000000   6.532563  10.350200   5.537581   # C_R
 85 1 8   0.000000   5.537574  10.350200   6.533592   # C_R
 86 1 5   0.000000   5.769587  10.350200   7.649589   # H_
 87 1 5   0.000000   7.648566  10.350200   5.769568   # H_
 88 1 9   0.000000   8.377540  10.350200   3.528560   # O_1
 89 1 6   0.000000   7.170536  10.350200   3.179573   # C_2
 90 1 9   0.000000   6.821523  10.350200   1.972577   # O_1
 91 2 7   0.000000   3.053586  10.350231   2.176702   # C_3
 92 2 7   0.000000   2.887960  10.350502   0.660718   # C_3
 93 2 5   0.000000   2.573914  11.250971   2.579765   # H_
 94 2 5   0.000000   2.573791   9.449818   2.579678   # H_
 95 2 5   0.000000   3.388455  11.227181   0.233813   # H_
 96 2 7   0.000000   1.418136  10.350474   0.271602   # C_3
 97 2 5   0.000000   3.388327   9.473458   0.233729   # H_
 98 2 5   0.000000   0.908776  11.236968   0.664266   # H_
 99 2 5   0.000000   0.908626   9.464248   0.664202   # H_
 100 2 5   0.000000   1.309689  10.350584  19.883419   # H_
 101 1 6   0.000000  13.529781   0.000000   7.170619   # C_2
 102 1 9   0.000000  13.878795   0.000000   8.377615   # O_1
 103 1 9   0.000000  12.322777  20.700400   6.821632   # O_1
 104 1 8   0.000000  14.593769   0.000000   6.106606   # C_R
 105 1 8   0.000000  14.166755  20.700400   4.812611   # C_R
 106 1 5   0.000000  13.050752  20.700400   4.580624   # H_
 107 2 10   0.000000  14.790074  20.700400   2.498205   # O_3
 108 1 8   0.000000  15.162743  20.700400   3.817600   # C_R
 109 1 8   0.000000  16.456748   0.000000   4.243585   # C_R
 110 1 8   0.000000  16.882763   0.000000   5.537581   # C_R
 111 1 8   0.000000  15.887774   0.000000   6.533592   # C_R
 112 1 5   0.000000  16.119787   0.000000   7.649589   # H_
 113 1 5   0.000000  17.998766   0.000000   5.769568   # H_
 114 1 9   0.000000  18.727740   0.000000   3.528560   # O_1
 115 1 6   0.000000  17.520736   0.000000   3.179573   # C_2
 116 1 9   0.000000  17.171723  20.700400   1.972577   # O_1
 117 2 7   0.000000  13.403786   0.000031   2.176702   # C_3
 118 2 7   0.000000  13.238160   0.000302   0.660718   # C_3
 119 2 5   0.000000  12.924114   0.900771   2.579765   # H_
 120 2 5   0.000000  12.923991  19.800018   2.579678   # H_
 121 2 5   0.000000  13.738655   0.876981   0.233813   # H_
 122 2 7   0.000000  11.768336   0.000274   0.271602   # C_3
 123 2 5   0.000000  13.738527  19.823658   0.233729   # H_
 124 2 5   0.000000  11.258976   0.886768   0.664266   # H_
 125 2 5   0.000000  11.258826  19.814448   0.664202   # H_
 126 2 5   0.000000  11.659889   0.000384  19.883419   # H_
 127 1 6   0.000000  13.529781  10.350200  17.520819   # C_2
 128 1 9   0.000000  13.878795  10.350200  18.727815   # O_1
 129 1 9   0.000000  12.322777  10.350200  17.171832   # O_1
 130 1 8   0.000000  14.593769  10.350200  16.456806   # C_R
 131 1 8   0.000000  14.166755  10.350200  15.162811   # C_R
 132 1 5   0.000000  13.050752  10.350200  14.930824   # H_
 133 2 10   0.000000  14.790074  10.350200  12.848405   # O_3
 134 1 8   0.000000  15.162743  10.350200  14.167800   # C_R
 135 1 8   0.000000  16.456748  10.350200  14.593785   # C_R
 136 1 8   0.000000  16.882763  10.350200  15.887781   # C_R
 137 1 8   0.000000  15.887774  10.350200  16.883792   # C_R
 138 1 5   0.000000  16.119787  10.350200  17.999789   # H_
 139 1 5   0.000000  17.998766  10.350200  16.119768   # H_
 140 1 9   0.000000  18.727740  10.350200  13.878760   # O_1
 141 1 6   0.000000  17.520736  10.350200  13.529773   # C_2
 142 1 9   0.000000  17.171723  10.350200  12.322777   # O_1
 143 2 7   0.000000  13.403786  10.350231  12.526902   # C_3
 144 2 7   0.000000  13.238160  10.350502  11.010918   # C_3
 145 2 5   0.000000  12.924114  11.250971  12.929965   # H_
 146 2 5   0.000000  12.923991   9.449818  12.929878   # H_
 147 2 5   0.000000  13.738655  11.227181  10.584013   # H_
 148 2 7   0.000000  11.768336  10.350474  10.621802   # C_3
 149 2 5   0.000000  13.738527   9.473458  10.583929   # H_
 150 2 5   0.000000  11.258976  11.236968  11.014466   # H_
 151 2 5   0.000000  11.258826   9.464248  11.014402   # H_
 152 2 5   0.000000  11.659889  10.350584   9.533219   # H_
 153 1 6   0.000000  17.520819   0.000000  17.520819   # C_2
 154 1 9   0.000000  17.171805   0.000000  18.727815   # O_1
 155 1 9   0.000000  18.727823   0.000000  17.171832   # O_1
 156 1 8   0.000000  16.456831   0.000000  16.456806   # C_R
 157 1 8   0.000000  16.883845   0.000000  15.162811   # C_R
 158 1 5   0.000000  17.999848   0.000000  14.930824   # H_
 159 2 10   0.000000  16.260526   0.000000  12.848405   # O_3
 160 1 8   0.000000  15.887857   0.000000  14.167800   # C_R
 161 1 8   0.000000  14.593852   0.000000  14.593785   # C_R
 162 1 8   0.000000  14.167837   0.000000  15.887781   # C_R
 163 1 8   0.000000  15.162826   0.000000  16.883792   # C_R
 164 1 5   0.000000  14.930813   0.000000  17.999789   # H_
 165 1 5   0.000000  13.051834   0.000000  16.119768   # H_
 166 1 9   0.000000  12.322860   0.000000  13.878760   # O_1
 167 1 6   0.000000  13.529864   0.000000  13.529773   # C_2
 168 1 9   0.000000  13.878877   0.000000  12.322777   # O_1
 169 2 7   0.000000  17.646814  20.700369  12.526902   # C_3
 170 2 7   0.000000  17.812440  20.700098  11.010918   # C_3
 171 2 5   0.000000  18.126486  19.799629  12.929965   # H_
 172 2 5   0.000000  18.126609   0.900382  12.929878   # H_
 173 2 5   0.000000  17.311945  19.823419  10.584013   # H_
 174 2 7   0.000000  19.282264  20.700126  10.621802   # C_3
 175 2 5   0.000000  17.312073   0.876742  10.583929   # H_
 176 2 5   0.000000  19.791624  19.813632  11.014466   # H_
 177 2 5   0.000000  19.791774   0.885952  11.014402   # H_
 178 2 5   0.000000  19.390711  20.700016   9.533219   # H_
 179 1 6   0.000000  17.520819  10.350200   7.170619   # C_2
 180 1 9   0.000000  17.171805  10.350200   8.377615   # O_1
 181 1 9   0.000000  18.727823  10.350200   6.821632   # O_1
 182 1 8   0.000000  16.456831  10.350200   6.106606   # C_R
 183 1 8   0.000000  16.883845  10.350200   4.812611   # C_R
 184 1 5   0.000000  17.999848  10.350200   4.580624   # H_
 185 2 10   0.000000  16.260526  10.350200   2.498205   # O_3
 186 1 8   0.000000  15.887857  10.350200   3.817600   # C_R
 187 1 8   0.000000  14.593852  10.350200   4.243585   # C_R
 188 1 8   0.000000  14.167837  10.350200   5.537581   # C_R
 189 1 8   0.000000  15.162826  10.350200   6.533592   # C_R
 190 1 5   0.000000  14.930813  10.350200   7.649589   # H_
 191 1 5   0.000000  13.051834  10.350200   5.769568   # H_
 192 1 9   0.000000  12.322860  10.350200   3.528560   # O_1
 193 1 6   0.000000  13.529864  10.350200   3.179573   # C_2
 194 1 9   0.000000  13.878877  10.350200   1.972577   # O_1
 195 2 7   0.000000  17.646814  10.350169   2.176702   # C_3
 196 2 7   0.000000  17.812440  10.349898   0.660718   # C_3
 197 2 5   0.000000  18.126486   9.449429   2.579765   # H_
 198 2 5   0.000000  18.126609  11.250582   2.579678   # H_
 199 2 5   0.000000  17.311945   9.473219   0.233813   # H_
 200 2 7   0.000000  19.282264  10.349926   0.271602   # C_3
 201 2 5   0.000000  17.312073  11.226942   0.233729   # H_
 202 2 5   0.000000  19.791624   9.463432   0.664266   # H_
 203 2 5   0.000000  19.791774  11.236152   0.664202   # H_
 204 2 5   0.000000  19.390711  10.349816  19.883419   # H_
 205 1 6   0.000000   7.170619   0.000000   7.170619   # C_2
 206 1 9   0.000000   6.821605   0.000000   8.377615   # O_1
 207 1 9   0.000000   8.377623   0.000000   6.821632   # O_1
 208 1 8   0.000000   6.106631   0.000000   6.106606   # C_R
 209 1 8   0.000000   6.533645   0.000000   4.812611   # C_R
 210 1 5   0.000000   7.649648   0.000000   4.580624   # H_
 211 2 10   0.000000   5.910326   0.000000   2.498205   # O_3
 212 1 8   0.000000   5.537657   0.000000   3.817600   # C_R
 213 1 8   0.000000   4.243652   0.000000   4.243585   # C_R
 214 1 8   0.000000   3.817637   0.000000   5.537581   # C_R
 215 1 8   0.000000   4.812626   0.000000   6.533592   # C_R
 216 1 5   0.000000   4.580613   0.000000   7.649589   # H_
 217 1 5   0.000000   2.701634   0.000000   5.769568   # H_
 218 1 9   0.000000   1.972660   0.000000   3.528560   # O_1
 219 1 6   0.000000   3.179664   0.000000   3.179573   # C_2
 220 1 9   0.000000   3.528677   0.000000   1.972577   # O_1
 221 2 7   0.000000   7.296614  20.700369   2.176702   # C_3
 222 2 7   0.000000   7.462240  20.700098   0.660718   # C_3
 223 2 5   0.000000   7.776286  19.799629   2.579765   # H_
 224 2 5   0.000000   7.776409   0.900382   2.579678   # H_
 225 2 5   0.000000   6.961745  19.823419   0.233813   # H_
 226 2 7   0.000000   8.932064  20.700126   0.271602   # C_3
 227 2 5   0.000000   6.961873   0.876742   0.233729   # H_
 228 2 5   0.000000   9.441424  19.813632   0.664266   # H_
 229 2 5   0.000000   9.441574   0.885952   0.664202   # H_
 230 2 5   0.000000   9.040511  20.700016  19.883419   # H_
 231 1 6   0.000000   7.170619  10.350200  17.520819   # C_2
 232 1 9   0.000000   6.821605  10.350200  18.727815   # O_1
 233 1 9   0.000000   8.377623  10.350200  17.171832   # O_1
 234 1 8   0.000000   6.106631  10.350200  16.456806   # C_R
 235 1 8   0.000000   6.533645  10.350200  15.162811   # C_R
 236 1 5   0.000000   7.649648  10.350200  14.930824   # H_
 237 2 10   0.000000   5.910326  10.350200  12.848405   # O_3
 238 1 8   0.000000   5.537657  10.350200  14.167800   # C_R
 239 1 8   0.000000   4.243652  10.350200  14.593785   # C_R
 240 1 8   0.000000   3.817637  10.350200  15.887781   # C_R
 241 1 8   0.000000   4.812626  10.350200  16.883792   # C_R
 242 1 5   0.000000   4.580613  10.350200  17.999789   # H_
 243 1 5   0.000000   2.701634  10.350200  16.119768   # H_
 244 1 9   0.000000   1.972660  10.350200  13.878760   # O_1
 245 1 6   0.000000   3.179664  10.350200  13.529773   # C_2
 246 1 9   0.000000   3.528677  10.350200  12.322777   # O_1
 247 2 7   0.000000   7.296614  10.350169  12.526902   # C_3
 248 2 7   0.000000   7.462240  10.349898  11.010918   # C_3
 249 2 5   0.000000   7.776286   9.449429  12.929965   # H_
 250 2 5   0.000000   7.776409  11.250582  12.929878   # H_
 251 2 5   0.000000   6.961745   9.473219  10.584013   # H_
 252 2 7   0.000000   8.932064  10.349926  10.621802   # C_3
 253 2 5   0.000000   6.961873  11.226942  10.583929   # H_
 254 2 5   0.000000   9.441424   9.463432  11.014466   # H_
 255 2 5   0.000000   9.441574  11.236152  11.014402   # H_
 256 2 5   0.000000   9.040511  10.349816   9.533219   # H_
 257 1 6   0.000000  17.520819   3.179581   0.000000   # C_2
 258 1 9   0.000000  18.727815   3.528595  20.700400   # O_1
 259 1 9   0.000000  17.171832   1.972577   0.000000   # O_1
 260 1 8   0.000000  16.456806   4.243569  20.700400   # C_R
 261 1 8   0.000000  15.162811   3.816555   0.000000   # C_R
 262 1 5   0.000000  14.930824   2.700552   0.000000   # H_
 263 2 10   0.000000  12.848405   4.439874   0.000000   # O_3
 264 1 8   0.000000  14.167800   4.812543   0.000000   # C_R
 265 1 8   0.000000  14.593785   6.106548  20.700400   # C_R
 266 1 8   0.000000  15.887781   6.532563  20.700400   # C_R
 267 1 8   0.000000  16.883792   5.537574  20.700400   # C_R
 268 1 5   0.000000  17.999789   5.769587  20.700400   # H_
 269 1 5   0.000000  16.119768   7.648566  20.700400   # H_
 270 1 9   0.000000  13.878760   8.377540  20.700400   # O_1
 271 1 6   0.000000  13.529773   7.170536  20.700400   # C_2
 272 1 9   0.000000  12.322777   6.821523   0.000000   # O_1
 273 2 7   0.000000  12.526902   3.053586   0.000031   # C_3
 274 2 7   0.000000  11.010918   2.887960   0.000302   # C_3
 275 2 5   0.000000  12.929965   2.573914   0.900771   # H_
 276 2 5   0.000000  12.929878   2.573791  19.800018   # H_
 277 2 5   0.000000  10.584013   3.388455   0.876981   # H_
 278 2 7   0.000000  10.621802   1.418136   0.000274   # C_3
 279 2 5   0.000000  10.583929   3.388327  19.823658   # H_
 280 2 5   0.000000  11.014466   0.908776   0.886768   # H_
 281 2 5   0.000000  11.014402   0.908626  19.814448   # H_
 282 2 5   0.000000   9.533219   1.309689   0.000384   # H_
 283 1 6   0.000000  17.520819  13.529781  10.350200   # C_2
 284 1 9   0.000000  18.727815  13.878795  10.350200   # O_1
 285 1 9   0.000000  17.171832  12.322777  10.350200   # O_1
 286 1 8   0.000000  16.456806  14.593769  10.350200   # C_R
 287 1 8   0.000000  15.162811  14.166755  10.350200   # C_R
 288 1 5   0.000000  14.930824  13.050752  10.350200   # H_
 289 2 10   0.000000  12.848405  14.790074  10.350200   # O_3
 290 1 8   0.000000  14.167800  15.162743  10.350200   # C_R
 291 1 8   0.000000  14.593785  16.456748  10.350200   # C_R
 292 1 8   0.000000  15.887781  16.882763  10.350200   # C_R
 293 1 8   0.000000  16.883792  15.887774  10.350200   # C_R
 294 1 5   0.000000  17.999789  16.119787  10.350200   # H_
 295 1 5   0.000000  16.119768  17.998766  10.350200   # H_
 296 1 9   0.000000  13.878760  18.727740  10.350200   # O_1
 297 1 6   0.000000  13.529773  17.520736  10.350200   # C_2
 298 1 9   0.000000  12.322777  17.171723  10.350200   # O_1
 299 2 7   0.000000  12.526902  13.403786  10.350231   # C_3
 300 2 7   0.000000  11.010918  13.238160  10.350502   # C_3
 301 2 5   0.000000  12.929965  12.924114  11.250971   # H_
 302 2 5   0.000000  12.929878  12.923991   9.449818   # H_
 303 2 5   0.000000  10.584013  13.738655  11.227181   # H_
 304 2 7   0.000000  10.621802  11.768336  10.350474   # C_3
 305 2 5   0.000000  10.583929  13.738527   9.473458   # H_
 306 2 5   0.000000  11.014466  11.258976  11.236968   # H_
 307 2 5   0.000000  11.014402  11.258826   9.464248   # H_
 308 2 5   0.000000   9.533219  11.659889  10.350584   # H_
 309 1 6   0.000000   7.170619   3.179581  10.350200   # C_2
 310 1 9   0.000000   8.377615   3.528595  10.350200   # O_1
 311 1 9   0.000000   6.821632   1.972577  10.350200   # O_1
 312 1 8   0.000000   6.106606   4.243569  10.350200   # C_R
 313 1 8   0.000000   4.812611   3.816555  10.350200   # C_R
 314 1 5   0.000000   4.580624   2.700552  10.350200   # H_
 315 2 10   0.000000   2.498205   4.439874  10.350200   # O_3
 316 1 8   0.000000   3.817600   4.812543  10.350200   # C_R
 317 1 8   0.000000   4.243585   6.106548  10.350200   # C_R
 318 1 8   0.000000   5.537581   6.532563  10.350200   # C_R
 319 1 8   0.000000   6.533592   5.537574  10.350200   # C_R
 320 1 5   0.000000   7.649589   5.769587  10.350200   # H_
 321 1 5   0.000000   5.769568   7.648566  10.350200   # H_
 322 1 9   0.000000   3.528560   8.377540  10.350200   # O_1
 323 1 6   0.000000   3.179573   7.170536  10.350200   # C_2
 324 1 9   0.000000   1.972577   6.821523  10.350200   # O_1
 325 2 7   0.000000   2.176702   3.053586  10.350231   # C_3
 326 2 7   0.000000   0.660718   2.887960  10.350502   # C_3
 327 2 5   0.000000   2.579765   2.573914  11.250971   # H_
 328 2 5   0.000000   2.579678   2.573791   9.449818   # H_
 329 2 5   0.000000   0.233813   3.388455  11.227181   # H_
 330 2 7   0.000000   0.271602   1.418136  10.350474   # C_3
 331 2 5   0.000000   0.233729   3.388327   9.473458   # H_
 332 2 5   0.000000   0.664266   0.908776  11.236968   # H_
 333 2 5   0.000000   0.664202   0.908626   9.464248   # H_
 334 2 5   0.000000  19.883419   1.309689  10.350584   # H_
 335 1 6   0.000000   7.170619  13.529781   0.000000   # C_2
 336 1 9   0.000000   8.377615  13.878795   0.000000   # O_1
 337 1 9   0.000000   6.821632  12.322777  20.700400   # O_1
 338 1 8   0.000000   6.106606  14.593769   0.000000   # C_R
 339 1 8   0.000000   4.812611  14.166755   0.000000   # C_R
 340 1 5   0.000000   4.580624  13.050752  20.700400   # H_
 341 2 10   0.000000   2.498205  14.790074  20.700400   # O_3
 342 1 8   0.000000   3.817600  15.162743   0.000000   # C_R
 343 1 8   0.000000   4.243585  16.456748   0.000000   # C_R
 344 1 8   0.000000   5.537581  16.882763   0.000000   # C_R
 345 1 8   0.000000   6.533592  15.887774   0.000000   # C_R
 346 1 5   0.000000   7.649589  16.119787   0.000000   # H_
 347 1 5   0.000000   5.769568  17.998766   0.000000   # H_
 348 1 9   0.000000   3.528560  18.727740   0.000000   # O_1
 349 1 6   0.000000   3.179573  17.520736   0.000000   # C_2
 350 1 9   0.000000   1.972577  17.171723   0.000000   # O_1
 351 2 7   0.000000   2.176702  13.403786   0.000031   # C_3
 352 2 7   0.000000   0.660718  13.238160   0.000302   # C_3
 353 2 5   0.000000   2.579765  12.924114   0.900771   # H_
 354 2 5   0.000000   2.579678  12.923991  19.800018   # H_
 355 2 5   0.000000   0.233813  13.738655   0.876981   # H_
 356 2 7   0.000000   0.271602  11.768336   0.000274   # C_3
 357 2 5   0.000000   0.233729  13.738527  19.823658   # H_
 358 2 5   0.000000   0.664266  11.258976   0.886768   # H_
 359 2 5   0.000000   0.664202  11.258826  19.814448   # H_
 360 2 5   0.000000  19.883419  11.659889   0.000384   # H_
 361 1 6   0.000000  17.520819  17.520819   0.000000   # C_2
 362 1 9   0.000000  18.727815  17.171805  20.700400   # O_1
 363 1 9   0.000000  17.171832  18.727823   0.000000   # O_1
 364 1 8   0.000000  16.456806  16.456831   0.000000   # C_R
 365 1 8   0.000000  15.162811  16.883845   0.000000   # C_R
 366 1 5   0.000000  14.930824  17.999848   0.000000   # H_
 367 2 10   0.000000  12.848405  16.260526   0.000000   # O_3
 368 1 8   0.000000  14.167800  15.887857   0.000000   # C_R
 369 1 8   0.000000  14.593785  14.593852   0.000000   # C_R
 370 1 8   0.000000  15.887781  14.167837  20.700400   # C_R
 371 1 8   0.000000  16.883792  15.162826  20.700400   # C_R
 372 1 5   0.000000  17.999789  14.930813  20.700400   # H_
 373 1 5   0.000000  16.119768  13.051834  20.700400   # H_
 374 1 9   0.000000  13.878760  12.322860  20.700400   # O_1
 375 1 6   0.000000  13.529773  13.529864   0.000000   # C_2
 376 1 9   0.000000  12.322777  13.878877   0.000000   # O_1
 377 2 7   0.000000  12.526902  17.646814  20.700369   # C_3
 378 2 7   0.000000  11.010918  17.812440  20.700098   # C_3
 379 2 5   0.000000  12.929965  18.126486  19.799629   # H_
 380 2 5   0.000000  12.929878  18.126609   0.900382   # H_
 381 2 5   0.000000  10.584013  17.311945  19.823419   # H_
 382 2 7   0.000000  10.621802  19.282264  20.700126   # C_3
 383 2 5   0.000000  10.583929  17.312073   0.876742   # H_
 384 2 5   0.000000  11.014466  19.791624  19.813632   # H_
 385 2 5   0.000000  11.014402  19.791774   0.885952   # H_
 386 2 5   0.000000   9.533219  19.390711  20.700016   # H_
 387 1 6   0.000000  17.520819   7.170619  10.350200   # C_2
 388 1 9   0.000000  18.727815   6.821605  10.350200   # O_1
 389 1 9   0.000000  17.171832   8.377623  10.350200   # O_1
 390 1 8   0.000000  16.456806   6.106631  10.350200   # C_R
 391 1 8   0.000000  15.162811   6.533645  10.350200   # C_R
 392 1 5   0.000000  14.930824   7.649648  10.350200   # H_
 393 2 10   0.000000  12.848405   5.910326  10.350200   # O_3
 394 1 8   0.000000  14.167800   5.537657  10.350200   # C_R
 395 1 8   0.000000  14.593785   4.243652  10.350200   # C_R
 396 1 8   0.000000  15.887781   3.817637  10.350200   # C_R
 397 1 8   0.000000  16.883792   4.812626  10.350200   # C_R
 398 1 5   0.000000  17.999789   4.580613  10.350200   # H_
 399 1 5   0.000000  16.119768   2.701634  10.350200   # H_
 400 1 9   0.000000  13.878760   1.972660  10.350200   # O_1
 401 1 6   0.000000  13.529773   3.179664  10.350200   # C_2
 402 1 9   0.000000  12.322777   3.528677  10.350200   # O_1
 403 2 7   0.000000  12.526902   7.296614  10.350169   # C_3
 404 2 7   0.000000  11.010918   7.462240  10.349898   # C_3
 405 2 5   0.000000  12.929965   7.776286   9.449429   # H_
 406 2 5   0.000000  12.929878   7.776409  11.250582   # H_
 407 2 5   0.000000  10.584013   6.961745   9.473219   # H_
 408 2 7   0.000000  10.621802   8.932064  10.349926   # C_3
 409 2 5   0.000000  10.583929   6.961873  11.226942   # H_
 410 2 5   0.000000  11.014466   9.441424   9.463432   # H_
 411 2 5   0.000000  11.014402   9.441574  11.236152   # H_
 412 2 5   0.000000   9.533219   9.040511  10.349816   # H_
 413 1 6   0.000000   7.170619  17.520819  10.350200   # C_2
 414 1 9   0.000000   8.377615  17.171805  10.350200   # O_1
 415 1 9   0.000000   6.821632  18.727823  10.350200   # O_1
 416 1 8   0.000000   6.106606  16.456831  10.350200   # C_R
 417 1 8   0.000000   4.812611  16.883845  10.350200   # C_R
 418 1 5   0.000000   4.580624  17.999848  10.350200   # H_
 419 2 10   0.000000   2.498205  16.260526  10.350200   # O_3
 420 1 8   0.000000   3.817600  15.887857  10.350200   # C_R
 421 1 8   0.000000   4.243585  14.593852  10.350200   # C_R
 422 1 8   0.000000   5.537581  14.167837  10.350200   # C_R
 423 1 8   0.000000   6.533592  15.162826  10.350200   # C_R
 424 1 5   0.000000   7.649589  14.930813  10.350200   # H_
 425 1 5   0.000000   5.769568  13.051834  10.350200   # H_
 426 1 9   0.000000   3.528560  12.322860  10.350200   # O_1
 427 1 6   0.000000   3.179573  13.529864  10.350200   # C_2
 428 1 9   0.000000   1.972577  13.878877  10.350200   # O_1
 429 2 7   0.000000   2.176702  17.646814  10.350169   # C_3
 430 2 7   0.000000   0.660718  17.812440  10.349898   # C_3
 431 2 5   0.000000   2.579765  18.126486   9.449429   # H_
 432 2 5   0.000000   2.579678  18.126609  11.250582   # H_
 433 2 5   0.000000   0.233813  17.311945   9.473219   # H_
 434 2 7   0.000000   0.271602  19.282264  10.349926   # C_3
 435 2 5   0.000000   0.233729  17.312073  11.226942   # H_
 436 2 5   0.000000   0.664266  19.791624   9.463432   # H_
 437 2 5   0.000000   0.664202  19.791774  11.236152   # H_
 438 2 5   0.000000  19.883419  19.390711  10.349816   # H_
 439 1 6   0.000000   7.170619   7.170619   0.000000   # C_2
 440 1 9   0.000000   8.377615   6.821605  20.700400   # O_1
 441 1 9   0.000000   6.821632   8.377623   0.000000   # O_1
 442 1 8   0.000000   6.106606   6.106631   0.000000   # C_R
 443 1 8   0.000000   4.812611   6.533645   0.000000   # C_R
 444 1 5   0.000000   4.580624   7.649648   0.000000   # H_
 445 2 10   0.000000   2.498205   5.910326   0.000000   # O_3
 446 1 8   0.000000   3.817600   5.537657   0.000000   # C_R
 447 1 8   0.000000   4.243585   4.243652   0.000000   # C_R
 448 1 8   0.000000   5.537581   3.817637   0.000000   # C_R
 449 1 8   0.000000   6.533592   4.812626  20.700400   # C_R
 450 1 5   0.000000   7.649589   4.580613   0.000000   # H_
 451 1 5   0.000000   5.769568   2.701634  20.700400   # H_
 452 1 9   0.000000   3.528560   1.972660   0.000000   # O_1
 453 1 6   0.000000   3.179573   3.179664   0.000000   # C_2
 454 1 9   0.000000   1.972577   3.528677   0.000000   # O_1
 455 2 7   0.000000   2.176702   7.296614  20.700369   # C_3
 456 2 7   0.000000   0.660718   7.462240  20.700098   # C_3
 457 2 5   0.000000   2.579765   7.776286  19.799629   # H_
 458 2 5   0.000000   2.579678   7.776409   0.900382   # H_
 459 2 5   0.000000   0.233813   6.961745  19.823419   # H_
 460 2 7   0.000000   0.271602   8.932064  20.700126   # C_3
 461 2 5   0.000000   0.233729   6.961873   0.876742   # H_
 462 2 5   0.000000   0.664266   9.441424  19.813632   # H_
 463 2 5   0.000000   0.664202   9.441574   0.885952   # H_
 464 2 5   0.000000  19.883419   9.040511  20.700016   # H_