 (written by mofun)

776 atoms
144 bonds
192 angles
288 dihedrals
0 impropers

10 atom types
3 bond types
3 angle types
3 dihedral types
   0.000000  26.896000 xlo xhi
   0.000000  26.896000 ylo yhi
   0.000000  26.896000 zlo zhi

Masses

 1 91.2240   # Zr3+4
 2 15.9994   # O_3
 3 12.0107   # C_3
 4 1.0079   # H_
 5 1.0079   # H_
 6 12.0107   # C_2
 7 12.0107   # C_R
 8 14.0067   # N_1
 9 14.0067   # N_2
 10 15.9994   # O_1

Pair Coeffs

 1   0.069000   2.783168 # Zr3+4
 2   0.060000   3.118146 # O_3
 3   0.105000   3.430851 # C_3
 4   0.044000   2.571134 # H_
 5 0.044000 2.571134   # H_
 6 0.105000 3.430851   # C_2
 7 0.105000 3.430851   # C_R
 8 0.069000 3.260689   # N_1
 9 0.069000 3.260689   # N_2
 10 0.060000 3.118146   # O_1

Bond Coeffs

 1 578.340382 1.408249   # C_R N_2
 2 1191.726198 1.217189   # N_1 N_2
 3 1272.510326 1.190867   # N_1 N_1

Angle Coeffs

 1 cosine/periodic  286.986588  -1  3   # C_R C_R N_2
 2 fourier  415.282267  0.362835  0.416030  0.287612   # C_R N_2 N_1
 3 cosine/periodic  307.808824  1  1   # N_1 N_1 N_2

Dihedral Coeffs

 1 harmonic 3.368555 -1 2   # C_R C_R C_R N_2 M=4
 2 harmonic 3.368555 -1 2   # H_ C_R C_R N_2 M=4
 3 harmonic 2.500000 -1 2   # C_R C_R N_2 N_1 M=2

Atoms

 1 1 1   0.000000   2.475508   0.000000   0.000000   # Zr3+4
 2 1 1   0.000000  24.420492   0.000000   0.000000   # Zr3+4
 3 1 1   0.000000   0.000000   2.475508   0.000000   # Zr3+4
 4 1 1   0.000000   0.000000  24.420492   0.000000   # Zr3+4
 5 1 1   0.000000   0.000000   0.000000   2.475508   # Zr3+4
 6 1 1   0.000000   0.000000   0.000000  24.420492   # Zr3+4
 7 1 1   0.000000   2.475508  13.448000  13.448000   # Zr3+4
 8 1 1   0.000000  24.420492  13.448000  13.448000   # Zr3+4
 9 1 1   0.000000   0.000000  15.923508  13.448000   # Zr3+4
 10 1 1   0.000000   0.000000  10.972492  13.448000   # Zr3+4
 11 1 1   0.000000   0.000000  13.448000  15.923508   # Zr3+4
 12 1 1   0.000000   0.000000  13.448000  10.972492   # Zr3+4
 13 1 1   0.000000  15.923508   0.000000  13.448000   # Zr3+4
 14 1 1   0.000000  10.972492   0.000000  13.448000   # Zr3+4
 15 1 1   0.000000  13.448000   2.475508  13.448000   # Zr3+4
 16 1 1   0.000000  13.448000  24.420492  13.448000   # Zr3+4
 17 1 1   0.000000  13.448000   0.000000  15.923508   # Zr3+4
 18 1 1   0.000000  13.448000   0.000000  10.972492   # Zr3+4
 19 1 1   0.000000  15.923508  13.448000   0.000000   # Zr3+4
 20 1 1   0.000000  10.972492  13.448000   0.000000   # Zr3+4
 21 1 1   0.000000  13.448000  15.923508   0.000000   # Zr3+4
 22 1 1   0.000000  13.448000  10.972492   0.000000   # Zr3+4
 23 1 1   0.000000  13.448000  13.448000   2.475508   # Zr3+4
 24 1 1   0.000000  13.448000  13.448000  24.420492   # Zr3+4
 25 1 2   0.000000   1.221078   1.221078   1.221078   # O_3
 26 1 2   0.000000  25.674922  25.674922   1.221078   # O_3
 27 1 2   0.000000  25.674922   1.221078  25.674922   # O_3
 28 1 2   0.000000   1.221078  25.674922  25.674922   # O_3
 29 1 2   0.000000   1.221078   1.221078  25.674922   # O_3
 30 1 2   0.000000  25.674922  25.674922  25.674922   # O_3
 31 1 2   0.000000   1.221078  25.674922   1.221078   # O_3
 32 1 2   0.000000  25.674922   1.221078   1.221078   # O_3
 33 1 2   0.000000   1.221078  14.669078  14.669078   # O_3
 34 1 2   0.000000  25.674922  12.226922  14.669078   # O_3
 35 1 2   0.000000  25.674922  14.669078  12.226922   # O_3
 36 1 2   0.000000   1.221078  12.226922  12.226922   # O_3
 37 1 2   0.000000   1.221078  14.669078  12.226922   # O_3
 38 1 2   0.000000  25.674922  12.226922  12.226922   # O_3
 39 1 2   0.000000   1.221078  12.226922  14.669078   # O_3
 40 1 2   0.000000  25.674922  14.669078  14.669078   # O_3
 41 1 2   0.000000  14.669078   1.221078  14.669078   # O_3
 42 1 2   0.000000  12.226922  25.674922  14.669078   # O_3
 43 1 2   0.000000  12.226922   1.221078  12.226922   # O_3
 44 1 2   0.000000  14.669078  25.674922  12.226922   # O_3
 45 1 2   0.000000  14.669078   1.221078  12.226922   # O_3
 46 1 2   0.000000  12.226922  25.674922  12.226922   # O_3
 47 1 2   0.000000  14.669078  25.674922  14.669078   # O_3
 48 1 2   0.000000  12.226922   1.221078  14.669078   # O_3
 49 1 2   0.000000  14.669078  14.669078   1.221078   # O_3
 50 1 2   0.000000  12.226922  12.226922   1.221078   # O_3
 51 1 2   0.000000  12.226922  14.669078  25.674922   # O_3
 52 1 2   0.000000  14.669078  12.226922  25.674922   # O_3
 53 1 2   0.000000  14.669078  14.669078  25.674922   # O_3
 54 1 2   0.000000  12.226922  12.226922  25.674922   # O_3
 55 1 2   0.000000  14.669078  12.226922   1.221078   # O_3
 56 1 2   0.000000  12.226922  14.669078   1.221078   # O_3
 57 1 10   0.000000   3.566410   0.000000   1.933822   # O_1
 58 1 6   0.000000   3.152211   0.000000   3.152223   # C_2
 59 1 10   0.000000   1.933811  26.896000   3.566424   # O_1
 60 1 7   0.000000   4.209211   0.000000   4.209222   # C_R
 61 1 7   0.000000   5.535211   0.000000   3.891921   # C_R
 62 1 7   0.000000   3.891912   0.000000   5.535222   # C_R
 63 1 7   0.000000   6.508812   0.000000   4.827820   # C_R
 64 1 5   0.000000   5.780010  26.896000   2.996221   # H_
 65 1 7   0.000000   4.827813  26.896000   6.508821   # C_R
 66 1 5   0.000000   2.996212  26.896000   5.780023   # H_
 67 1 7   0.000000   6.204913   0.000000   6.204920   # C_R
 68 1 7   0.000000   7.243114  26.896000   7.243120   # C_R
 69 1 5   0.000000   7.399112   0.000000   4.558920   # H_
 70 1 7   0.000000   8.620213   0.000000   6.939219   # C_R
 71 2 9   0.000000   4.349224   0.000000   7.851512   # N_2
 72 1 7   0.000000   6.939215   0.000000   8.620220   # C_R
 73 1 7   0.000000   9.556114   0.000000   7.912818   # C_R
 74 2 9   0.000000   9.487049   0.000000   5.803493   # N_2
 75 1 7   0.000000   7.912815   0.000000   9.556119   # C_R
 76 1 5   0.000000   6.048915   0.000000   8.889121   # H_
 77 1 7   0.000000   9.238815  26.896000   9.238818   # C_R
 78 1 6   0.000000  10.295816  26.896000  10.295817   # C_2
 79 1 5   0.000000  10.451814   0.000000   7.668017   # H_
 80 1 5   0.000000   7.668016   0.000000  10.451819   # H_
 81 1 10   0.000000  11.514216   0.000000   9.881616   # O_1
 82 1 10   0.000000   9.881617   0.000000  11.514218   # O_1
 83 2 8   0.000000   9.394350   0.000000   4.584353   # N_1
 84 2 8   0.000000   9.441689  26.896000   3.442024   # N_1
 85 2 8   0.000000   3.129527   0.000000   8.092363   # N_1
 86 2 8   0.000000   2.022944  26.896000   8.374262   # N_1
 87 1 10   0.000000  23.329590   0.000000   1.933822   # O_1
 88 1 6   0.000000  23.743789   0.000000   3.152223   # C_2
 89 1 10   0.000000  24.962189   0.000000   3.566424   # O_1
 90 1 7   0.000000  22.686789   0.000000   4.209222   # C_R
 91 1 7   0.000000  21.360789  26.896000   3.891921   # C_R
 92 1 7   0.000000  23.004088   0.000000   5.535222   # C_R
 93 1 7   0.000000  20.387188  26.896000   4.827820   # C_R
 94 1 5   0.000000  21.115990  26.896000   2.996221   # H_
 95 1 7   0.000000  22.068187   0.000000   6.508821   # C_R
 96 1 5   0.000000  23.899788   0.000000   5.780023   # H_
 97 1 7   0.000000  20.691087   0.000000   6.204920   # C_R
 98 1 7   0.000000  19.652886  26.896000   7.243120   # C_R
 99 1 5   0.000000  19.496888  26.896000   4.558920   # H_
 100 1 7   0.000000  18.275787  26.896000   6.939219   # C_R
 101 2 9   0.000000  22.546776   0.000000   7.851512   # N_2
 102 1 7   0.000000  19.956785   0.000000   8.620220   # C_R
 103 1 7   0.000000  17.339886  26.896000   7.912818   # C_R
 104 2 9   0.000000  17.408951  26.896000   5.803493   # N_2
 105 1 7   0.000000  18.983185   0.000000   9.556119   # C_R
 106 1 5   0.000000  20.847085   0.000000   8.889121   # H_
 107 1 7   0.000000  17.657185  26.896000   9.238818   # C_R
 108 1 6   0.000000  16.600184  26.896000  10.295817   # C_2
 109 1 5   0.000000  16.444186  26.896000   7.668017   # H_
 110 1 5   0.000000  19.227984   0.000000  10.451819   # H_
 111 1 10   0.000000  15.381784  26.896000   9.881616   # O_1
 112 1 10   0.000000  17.014383  26.896000  11.514218   # O_1
 113 2 8   0.000000  17.501650  26.896000   4.584353   # N_1
 114 2 8   0.000000  17.454311  26.896000   3.442024   # N_1
 115 2 8   0.000000  23.766473   0.000000   8.092363   # N_1
 116 2 8   0.000000  24.873056   0.000000   8.374262   # N_1
 117 1 10   0.000000  23.329590   0.000000  24.962178   # O_1
 118 1 6   0.000000  23.743789   0.000000  23.743777   # C_2
 119 1 10   0.000000  24.962189   0.000000  23.329576   # O_1
 120 1 7   0.000000  22.686789   0.000000  22.686778   # C_R
 121 1 7   0.000000  21.360789  26.896000  23.004079   # C_R
 122 1 7   0.000000  23.004088   0.000000  21.360778   # C_R
 123 1 7   0.000000  20.387188  26.896000  22.068180   # C_R
 124 1 5   0.000000  21.115990  26.896000  23.899779   # H_
 125 1 7   0.000000  22.068187   0.000000  20.387179   # C_R
 126 1 5   0.000000  23.899788   0.000000  21.115977   # H_
 127 1 7   0.000000  20.691087   0.000000  20.691080   # C_R
 128 1 7   0.000000  19.652886  26.896000  19.652880   # C_R
 129 1 5   0.000000  19.496888  26.896000  22.337080   # H_
 130 1 7   0.000000  18.275787  26.896000  19.956781   # C_R
 131 2 9   0.000000  22.546776   0.000000  19.044488   # N_2
 132 1 7   0.000000  19.956785   0.000000  18.275780   # C_R
 133 1 7   0.000000  17.339886  26.896000  18.983182   # C_R
 134 2 9   0.000000  17.408951  26.896000  21.092507   # N_2
 135 1 7   0.000000  18.983185   0.000000  17.339881   # C_R
 136 1 5   0.000000  20.847085   0.000000  18.006879   # H_
 137 1 7   0.000000  17.657185  26.896000  17.657182   # C_R
 138 1 6   0.000000  16.600184  26.896000  16.600183   # C_2
 139 1 5   0.000000  16.444186  26.896000  19.227983   # H_
 140 1 5   0.000000  19.227984   0.000000  16.444181   # H_
 141 1 10   0.000000  15.381784  26.896000  17.014384   # O_1
 142 1 10   0.000000  17.014383  26.896000  15.381782   # O_1
 143 2 8   0.000000  17.501650  26.896000  22.311647   # N_1
 144 2 8   0.000000  17.454311  26.896000  23.453976   # N_1
 145 2 8   0.000000  23.766473   0.000000  18.803637   # N_1
 146 2 8   0.000000  24.873056   0.000000  18.521738   # N_1
 147 1 10   0.000000   3.566410   0.000000  24.962178   # O_1
 148 1 6   0.000000   3.152211   0.000000  23.743777   # C_2
 149 1 10   0.000000   1.933811   0.000000  23.329576   # O_1
 150 1 7   0.000000   4.209211   0.000000  22.686778   # C_R
 151 1 7   0.000000   5.535211   0.000000  23.004079   # C_R
 152 1 7   0.000000   3.891912   0.000000  21.360778   # C_R
 153 1 7   0.000000   6.508812   0.000000  22.068180   # C_R
 154 1 5   0.000000   5.780010   0.000000  23.899779   # H_
 155 1 7   0.000000   4.827813   0.000000  20.387179   # C_R
 156 1 5   0.000000   2.996212   0.000000  21.115977   # H_
 157 1 7   0.000000   6.204913   0.000000  20.691080   # C_R
 158 1 7   0.000000   7.243114   0.000000  19.652880   # C_R
 159 1 5   0.000000   7.399112   0.000000  22.337080   # H_
 160 1 7   0.000000   8.620213   0.000000  19.956781   # C_R
 161 2 9   0.000000   4.349224   0.000000  19.044488   # N_2
 162 1 7   0.000000   6.939215   0.000000  18.275780   # C_R
 163 1 7   0.000000   9.556114   0.000000  18.983182   # C_R
 164 2 9   0.000000   9.487049   0.000000  21.092507   # N_2
 165 1 7   0.000000   7.912815   0.000000  17.339881   # C_R
 166 1 5   0.000000   6.048915   0.000000  18.006879   # H_
 167 1 7   0.000000   9.238815   0.000000  17.657182   # C_R
 168 1 6   0.000000  10.295816   0.000000  16.600183   # C_2
 169 1 5   0.000000  10.451814   0.000000  19.227983   # H_
 170 1 5   0.000000   7.668016   0.000000  16.444181   # H_
 171 1 10   0.000000  11.514216   0.000000  17.014384   # O_1
 172 1 10   0.000000   9.881617   0.000000  15.381782   # O_1
 173 2 8   0.000000   9.394350   0.000000  22.311647   # N_1
 174 2 8   0.000000   9.441689   0.000000  23.453976   # N_1
 175 2 8   0.000000   3.129527   0.000000  18.803637   # N_1
 176 2 8   0.000000   2.022944   0.000000  18.521738   # N_1
 177 1 10   0.000000   1.933822   3.566410   0.000000   # O_1
 178 1 6   0.000000   3.152223   3.152211   0.000000   # C_2
 179 1 10   0.000000   3.566424   1.933811   0.000000   # O_1
 180 1 7   0.000000   4.209222   4.209211   0.000000   # C_R
 181 1 7   0.000000   3.891921   5.535211  26.896000   # C_R
 182 1 7   0.000000   5.535222   3.891912   0.000000   # C_R
 183 1 7   0.000000   4.827820   6.508812  26.896000   # C_R
 184 1 5   0.000000   2.996221   5.780010  26.896000   # H_
 185 1 7   0.000000   6.508821   4.827813   0.000000   # C_R
 186 1 5   0.000000   5.780023   2.996212   0.000000   # H_
 187 1 7   0.000000   6.204920   6.204913   0.000000   # C_R
 188 1 7   0.000000   7.243120   7.243114  26.896000   # C_R
 189 1 5   0.000000   4.558920   7.399112  26.896000   # H_
 190 1 7   0.000000   6.939219   8.620213  26.896000   # C_R
 191 2 9   0.000000   7.851512   4.349224   0.000000   # N_2
 192 1 7   0.000000   8.620220   6.939215   0.000000   # C_R
 193 1 7   0.000000   7.912818   9.556114  26.896000   # C_R
 194 2 9   0.000000   5.803493   9.487049  26.896000   # N_2
 195 1 7   0.000000   9.556119   7.912815   0.000000   # C_R
 196 1 5   0.000000   8.889121   6.048915   0.000000   # H_
 197 1 7   0.000000   9.238818   9.238815  26.896000   # C_R
 198 1 6   0.000000  10.295817  10.295816  26.896000   # C_2
 199 1 5   0.000000   7.668017  10.451814  26.896000   # H_
 200 1 5   0.000000  10.451819   7.668016   0.000000   # H_
 201 1 10   0.000000   9.881616  11.514216  26.896000   # O_1
 202 1 10   0.000000  11.514218   9.881617  26.896000   # O_1
 203 2 8   0.000000   4.584353   9.394350  26.896000   # N_1
 204 2 8   0.000000   3.442024   9.441689  26.896000   # N_1
 205 2 8   0.000000   8.092363   3.129527   0.000000   # N_1
 206 2 8   0.000000   8.374262   2.022944   0.000000   # N_1
 207 1 10   0.000000   1.933822  23.329590   0.000000   # O_1
 208 1 6   0.000000   3.152223  23.743789   0.000000   # C_2
 209 1 10   0.000000   3.566424  24.962189   0.000000   # O_1
 210 1 7   0.000000   4.209222  22.686789   0.000000   # C_R
 211 1 7   0.000000   3.891921  21.360789   0.000000   # C_R
 212 1 7   0.000000   5.535222  23.004088   0.000000   # C_R
 213 1 7   0.000000   4.827820  20.387188   0.000000   # C_R
 214 1 5   0.000000   2.996221  21.115990   0.000000   # H_
 215 1 7   0.000000   6.508821  22.068187   0.000000   # C_R
 216 1 5   0.000000   5.780023  23.899788   0.000000   # H_
 217 1 7   0.000000   6.204920  20.691087   0.000000   # C_R
 218 1 7   0.000000   7.243120  19.652886   0.000000   # C_R
 219 1 5   0.000000   4.558920  19.496888   0.000000   # H_
 220 1 7   0.000000   6.939219  18.275787   0.000000   # C_R
 221 2 9   0.000000   7.851512  22.546776   0.000000   # N_2
 222 1 7   0.000000   8.620220  19.956785   0.000000   # C_R
 223 1 7   0.000000   7.912818  17.339886   0.000000   # C_R
 224 2 9   0.000000   5.803493  17.408951   0.000000   # N_2
 225 1 7   0.000000   9.556119  18.983185   0.000000   # C_R
 226 1 5   0.000000   8.889121  20.847085   0.000000   # H_
 227 1 7   0.000000   9.238818  17.657185   0.000000   # C_R
 228 1 6   0.000000  10.295817  16.600184   0.000000   # C_2
 229 1 5   0.000000   7.668017  16.444186   0.000000   # H_
 230 1 5   0.000000  10.451819  19.227984   0.000000   # H_
 231 1 10   0.000000   9.881616  15.381784   0.000000   # O_1
 232 1 10   0.000000  11.514218  17.014383   0.000000   # O_1
 233 2 8   0.000000   4.584353  17.501650   0.000000   # N_1
 234 2 8   0.000000   3.442024  17.454311   0.000000   # N_1
 235 2 8   0.000000   8.092363  23.766473   0.000000   # N_1
 236 2 8   0.000000   8.374262  24.873056   0.000000   # N_1
 237 1 10   0.000000  24.962178  23.329590   0.000000   # O_1
 238 1 6   0.000000  23.743777  23.743789   0.000000   # C_2
 239 1 10   0.000000  23.329576  24.962189   0.000000   # O_1
 240 1 7   0.000000  22.686778  22.686789   0.000000   # C_R
 241 1 7   0.000000  23.004079  21.360789  26.896000   # C_R
 242 1 7   0.000000  21.360778  23.004088   0.000000   # C_R
 243 1 7   0.000000  22.068180  20.387188  26.896000   # C_R
 244 1 5   0.000000  23.899779  21.115990  26.896000   # H_
 245 1 7   0.000000  20.387179  22.068187   0.000000   # C_R
 246 1 5   0.000000  21.115977  23.899788   0.000000   # H_
 247 1 7   0.000000  20.691080  20.691087   0.000000   # C_R
 248 1 7   0.000000  19.652880  19.652886  26.896000   # C_R
 249 1 5   0.000000  22.337080  19.496888  26.896000   # H_
 250 1 7   0.000000  19.956781  18.275787  26.896000   # C_R
 251 2 9   0.000000  19.044488  22.546776   0.000000   # N_2
 252 1 7   0.000000  18.275780  19.956785   0.000000   # C_R
 253 1 7   0.000000  18.983182  17.339886  26.896000   # C_R
 254 2 9   0.000000  21.092507  17.408951  26.896000   # N_2
 255 1 7   0.000000  17.339881  18.983185   0.000000   # C_R
 256 1 5   0.000000  18.006879  20.847085   0.000000   # H_
 257 1 7   0.000000  17.657182  17.657185  26.896000   # C_R
 258 1 6   0.000000  16.600183  16.600184  26.896000   # C_2
 259 1 5   0.000000  19.227983  16.444186  26.896000   # H_
 260 1 5   0.000000  16.444181  19.227984   0.000000   # H_
 261 1 10   0.000000  17.014384  15.381784  26.896000   # O_1
 262 1 10   0.000000  15.381782  17.014383   0.000000   # O_1
 263 2 8   0.000000  22.311647  17.501650  26.896000   # N_1
 264 2 8   0.000000  23.453976  17.454311  26.896000   # N_1
 265 2 8   0.000000  18.803637  23.766473   0.000000   # N_1
 266 2 8   0.000000  18.521738  24.873056   0.000000   # N_1
 267 1 10   0.000000  24.962178   3.566410   0.000000   # O_1
 268 1 6   0.000000  23.743777   3.152211   0.000000   # C_2
 269 1 10   0.000000  23.329576   1.933811   0.000000   # O_1
 270 1 7   0.000000  22.686778   4.209211   0.000000   # C_R
 271 1 7   0.000000  23.004079   5.535211   0.000000   # C_R
 272 1 7   0.000000  21.360778   3.891912   0.000000   # C_R
 273 1 7   0.000000  22.068180   6.508812   0.000000   # C_R
 274 1 5   0.000000  23.899779   5.780010   0.000000   # H_
 275 1 7   0.000000  20.387179   4.827813   0.000000   # C_R
 276 1 5   0.000000  21.115977   2.996212   0.000000   # H_
 277 1 7   0.000000  20.691080   6.204913   0.000000   # C_R
 278 1 7   0.000000  19.652880   7.243114   0.000000   # C_R
 279 1 5   0.000000  22.337080   7.399112   0.000000   # H_
 280 1 7   0.000000  19.956781   8.620213   0.000000   # C_R
 281 2 9   0.000000  19.044488   4.349224   0.000000   # N_2
 282 1 7   0.000000  18.275780   6.939215   0.000000   # C_R
 283 1 7   0.000000  18.983182   9.556114   0.000000   # C_R
 284 2 9   0.000000  21.092507   9.487049   0.000000   # N_2
 285 1 7   0.000000  17.339881   7.912815   0.000000   # C_R
 286 1 5   0.000000  18.006879   6.048915   0.000000   # H_
 287 1 7   0.000000  17.657182   9.238815   0.000000   # C_R
 288 1 6   0.000000  16.600183  10.295816   0.000000   # C_2
 289 1 5   0.000000  19.227983  10.451814   0.000000   # H_
 290 1 5   0.000000  16.444181   7.668016   0.000000   # H_
 291 1 10   0.000000  17.014384  11.514216   0.000000   # O_1
 292 1 10   0.000000  15.381782   9.881617   0.000000   # O_1
 293 2 8   0.000000  22.311647   9.394350   0.000000   # N_1
 294 2 8   0.000000  23.453976   9.441689   0.000000   # N_1
 295 2 8   0.000000  18.803637   3.129527   0.000000   # N_1
 296 2 8   0.000000  18.521738   2.022944   0.000000   # N_1
 297 1 10   0.000000   0.000000   1.933822   3.566410   # O_1
 298 1 6   0.000000   0.000000   3.152223   3.152211   # C_2
 299 1 10   0.000000   0.000000   3.566424   1.933811   # O_1
 300 1 7   0.000000   0.000000   4.209222   4.209211   # C_R
 301 1 7   0.000000   0.000000   3.891921   5.535211   # C_R
 302 1 7   0.000000   0.000000   5.535222   3.891912   # C_R
 303 1 7   0.000000   0.000000   4.827820   6.508812   # C_R
 304 1 5   0.000000   0.000000   2.996221   5.780010   # H_
 305 1 7   0.000000   0.000000   6.508821   4.827813   # C_R
 306 1 5   0.000000   0.000000   5.780023   2.996212   # H_
 307 1 7   0.000000   0.000000   6.204920   6.204913   # C_R
 308 1 7   0.000000   0.000000   7.243120   7.243114   # C_R
 309 1 5   0.000000   0.000000   4.558920   7.399112   # H_
 310 1 7   0.000000   0.000000   6.939219   8.620213   # C_R
 311 2 9   0.000000   0.000000   7.851512   4.349224   # N_2
 312 1 7   0.000000   0.000000   8.620220   6.939215   # C_R
 313 1 7   0.000000   0.000000   7.912818   9.556114   # C_R
 314 2 9   0.000000   0.000000   5.803493   9.487049   # N_2
 315 1 7   0.000000   0.000000   9.556119   7.912815   # C_R
 316 1 5   0.000000   0.000000   8.889121   6.048915   # H_
 317 1 7   0.000000   0.000000   9.238818   9.238815   # C_R
 318 1 6   0.000000   0.000000  10.295817  10.295816   # C_2
 319 1 5   0.000000   0.000000   7.668017  10.451814   # H_
 320 1 5   0.000000   0.000000  10.451819   7.668016   # H_
 321 1 10   0.000000   0.000000   9.881616  11.514216   # O_1
 322 1 10   0.000000   0.000000  11.514218   9.881617   # O_1
 323 2 8   0.000000   0.000000   4.584353   9.394350   # N_1
 324 2 8   0.000000   0.000000   3.442024   9.441689   # N_1
 325 2 8   0.000000   0.000000   8.092363   3.129527   # N_1
 326 2 8   0.000000   0.000000   8.374262   2.022944   # N_1
 327 1 10   0.000000   0.000000   1.933822  23.329590   # O_1
 328 1 6   0.000000   0.000000   3.152223  23.743789   # C_2
 329 1 10   0.000000   0.000000   3.566424  24.962189   # O_1
 330 1 7   0.000000   0.000000   4.209222  22.686789   # C_R
 331 1 7   0.000000   0.000000   3.891921  21.360789   # C_R
 332 1 7   0.000000   0.000000   5.535222  23.004088   # C_R
 333 1 7   0.000000   0.000000   4.827820  20.387188   # C_R
 334 1 5   0.000000   0.000000   2.996221  21.115990   # H_
 335 1 7   0.000000   0.000000   6.508821  22.068187   # C_R
 336 1 5   0.000000   0.000000   5.780023  23.899788   # H_
 337 1 7   0.000000   0.000000   6.204920  20.691087   # C_R
 338 1 7   0.000000   0.000000   7.243120  19.652886   # C_R
 339 1 5   0.000000   0.000000   4.558920  19.496888   # H_
 340 1 7   0.000000   0.000000   6.939219  18.275787   # C_R
 341 2 9   0.000000   0.000000   7.851512  22.546776   # N_2
 342 1 7   0.000000   0.000000   8.620220  19.956785   # C_R
 343 1 7   0.000000   0.000000   7.912818  17.339886   # C_R
 344 2 9   0.000000   0.000000   5.803493  17.408951   # N_2
 345 1 7   0.000000   0.000000   9.556119  18.983185   # C_R
 346 1 5   0.000000   0.000000   8.889121  20.847085   # H_
 347 1 7   0.000000   0.000000   9.238818  17.657185   # C_R
 348 1 6   0.000000   0.000000  10.295817  16.600184   # C_2
 349 1 5   0.000000   0.000000   7.668017  16.444186   # H_
 350 1 5   0.000000   0.000000  10.451819  19.227984   # H_
 351 1 10   0.000000   0.000000   9.881616  15.381784   # O_1
 352 1 10   0.000000   0.000000  11.514218  17.014383   # O_1
 353 2 8   0.000000   0.000000   4.584353  17.501650   # N_1
 354 2 8   0.000000   0.000000   3.442024  17.454311   # N_1
 355 2 8   0.000000   0.000000   8.092363  23.766473   # N_1
 356 2 8   0.000000   0.000000   8.374262  24.873056   # N_1
 357 1 10   0.000000   0.000000  24.962178  23.329590   # O_1
 358 1 6   0.000000   0.000000  23.743777  23.743789   # C_2
 359 1 10   0.000000   0.000000  23.329576  24.962189   # O_1
 360 1 7   0.000000   0.000000  22.686778  22.686789   # C_R
 361 1 7   0.000000  26.896000  23.004079  21.360789   # C_R
 362 1 7   0.000000   0.000000  21.360778  23.004088   # C_R
 363 1 7   0.000000  26.896000  22.068180  20.387188   # C_R
 364 1 5   0.000000  26.896000  23.899779  21.115990   # H_
 365 1 7   0.000000   0.000000  20.387179  22.068187   # C_R
 366 1 5   0.000000   0.000000  21.115977  23.899788   # H_
 367 1 7   0.000000   0.000000  20.691080  20.691087   # C_R
 368 1 7   0.000000  26.896000  19.652880  19.652886   # C_R
 369 1 5   0.000000  26.896000  22.337080  19.496888   # H_
 370 1 7   0.000000  26.896000  19.956781  18.275787   # C_R
 371 2 9   0.000000   0.000000  19.044488  22.546776   # N_2
 372 1 7   0.000000   0.000000  18.275780  19.956785   # C_R
 373 1 7   0.000000  26.896000  18.983182  17.339886   # C_R
 374 2 9   0.000000  26.896000  21.092507  17.408951   # N_2
 375 1 7   0.000000   0.000000  17.339881  18.983185   # C_R
 376 1 5   0.000000   0.000000  18.006879  20.847085   # H_
 377 1 7   0.000000  26.896000  17.657182  17.657185   # C_R
 378 1 6   0.000000  26.896000  16.600183  16.600184   # C_2
 379 1 5   0.000000  26.896000  19.227983  16.444186   # H_
 380 1 5   0.000000   0.000000  16.444181  19.227984   # H_
 381 1 10   0.000000  26.896000  17.014384  15.381784   # O_1
 382 1 10   0.000000   0.000000  15.381782  17.014383   # O_1
 383 2 8   0.000000  26.896000  22.311647  17.501650   # N_1
 384 2 8   0.000000  26.896000  23.453976  17.454311   # N_1
 385 2 8   0.000000   0.000000  18.803637  23.766473   # N_1
 386 2 8   0.000000   0.000000  18.521738  24.873056   # N_1
 387 1 10   0.000000   0.000000  24.962178   3.566410   # O_1
 388 1 6   0.000000  26.896000  23.743777   3.152211   # C_2
 389 1 10   0.000000  26.896000  23.329576   1.933811   # O_1
 390 1 7   0.000000  26.896000  22.686778   4.209211   # C_R
 391 1 7   0.000000   0.000000  23.004079   5.535211   # C_R
 392 1 7   0.000000  26.896000  21.360778   3.891912   # C_R
 393 1 7   0.000000   0.000000  22.068180   6.508812   # C_R
 394 1 5   0.000000   0.000000  23.899779   5.780010   # H_
 395 1 7   0.000000  26.896000  20.387179   4.827813   # C_R
 396 1 5   0.000000  26.896000  21.115977   2.996212   # H_
 397 1 7   0.000000  26.896000  20.691080   6.204913   # C_R
 398 1 7   0.000000   0.000000  19.652880   7.243114   # C_R
 399 1 5   0.000000   0.000000  22.337080   7.399112   # H_
 400 1 7   0.000000   0.000000  19.956781   8.620213   # C_R
 401 2 9   0.000000  26.896000  19.044488   4.349224   # N_2
 402 1 7   0.000000  26.896000  18.275780   6.939215   # C_R
 403 1 7   0.000000   0.000000  18.983182   9.556114   # C_R
 404 2 9   0.000000   0.000000  21.092507   9.487049   # N_2
 405 1 7   0.000000  26.896000  17.339881   7.912815   # C_R
 406 1 5   0.000000  26.896000  18.006879   6.048915   # H_
 407 1 7   0.000000   0.000000  17.657182   9.238815   # C_R
 408 1 6   0.000000   0.000000  16.600183  10.295816   # C_2
 409 1 5   0.000000   0.000000  19.227983  10.451814   # H_
 410 1 5   0.000000  26.896000  16.444181   7.668016   # H_
 411 1 10   0.000000   0.000000  17.014384  11.514216   # O_1
 412 1 10   0.000000   0.000000  15.381782   9.881617   # O_1
 413 2 8   0.000000   0.000000  22.311647   9.394350   # N_1
 414 2 8   0.000000   0.000000  23.453976   9.441689   # N_1
 415 2 8   0.000000  26.896000  18.803637   3.129527   # N_1
 416 2 8   0.000000  26.896000  18.521738   2.022944   # N_1
 417 1 10   0.000000   3.566410  13.448000  15.381822   # O_1
 418 1 6   0.000000   3.152211  13.448000  16.600223   # C_2
 419 1 10   0.000000   1.933811  13.448000  17.014424   # O_1
 420 1 7   0.000000   4.209211  13.448000  17.657222   # C_R
 421 1 7   0.000000   5.535211  13.448000  17.339921   # C_R
 422 1 7   0.000000   3.891912  13.448000  18.983222   # C_R
 423 1 7   0.000000   6.508812  13.448000  18.275820   # C_R
 424 1 5   0.000000   5.780010  13.448000  16.444221   # H_
 425 1 7   0.000000   4.827813  13.448000  19.956821   # C_R
 426 1 5   0.000000   2.996212  13.448000  19.228023   # H_
 427 1 7   0.000000   6.204913  13.448000  19.652920   # C_R
 428 1 7   0.000000   7.243114  13.448000  20.691120   # C_R
 429 1 5   0.000000   7.399112  13.448000  18.006920   # H_
 430 1 7   0.000000   8.620213  13.448000  20.387219   # C_R
 431 2 9   0.000000   4.349224  13.448000  21.299512   # N_2
 432 1 7   0.000000   6.939215  13.448000  22.068220   # C_R
 433 1 7   0.000000   9.556114  13.448000  21.360818   # C_R
 434 2 9   0.000000   9.487049  13.448000  19.251493   # N_2
 435 1 7   0.000000   7.912815  13.448000  23.004119   # C_R
 436 1 5   0.000000   6.048915  13.448000  22.337121   # H_
 437 1 7   0.000000   9.238815  13.448000  22.686818   # C_R
 438 1 6   0.000000  10.295816  13.448000  23.743817   # C_2
 439 1 5   0.000000  10.451814  13.448000  21.116017   # H_
 440 1 5   0.000000   7.668016  13.448000  23.899819   # H_
 441 1 10   0.000000  11.514216  13.448000  23.329616   # O_1
 442 1 10   0.000000   9.881617  13.448000  24.962218   # O_1
 443 2 8   0.000000   9.394350  13.448000  18.032353   # N_1
 444 2 8   0.000000   9.441689  13.448000  16.890024   # N_1
 445 2 8   0.000000   3.129527  13.448000  21.540363   # N_1
 446 2 8   0.000000   2.022944  13.448000  21.822262   # N_1
 447 1 10   0.000000  23.329590  13.448000  15.381822   # O_1
 448 1 6   0.000000  23.743789  13.448000  16.600223   # C_2
 449 1 10   0.000000  24.962189  13.448000  17.014424   # O_1
 450 1 7   0.000000  22.686789  13.448000  17.657222   # C_R
 451 1 7   0.000000  21.360789  13.448000  17.339921   # C_R
 452 1 7   0.000000  23.004088  13.448000  18.983222   # C_R
 453 1 7   0.000000  20.387188  13.448000  18.275820   # C_R
 454 1 5   0.000000  21.115990  13.448000  16.444221   # H_
 455 1 7   0.000000  22.068187  13.448000  19.956821   # C_R
 456 1 5   0.000000  23.899788  13.448000  19.228023   # H_
 457 1 7   0.000000  20.691087  13.448000  19.652920   # C_R
 458 1 7   0.000000  19.652886  13.448000  20.691120   # C_R
 459 1 5   0.000000  19.496888  13.448000  18.006920   # H_
 460 1 7   0.000000  18.275787  13.448000  20.387219   # C_R
 461 2 9   0.000000  22.546776  13.448000  21.299512   # N_2
 462 1 7   0.000000  19.956785  13.448000  22.068220   # C_R
 463 1 7   0.000000  17.339886  13.448000  21.360818   # C_R
 464 2 9   0.000000  17.408951  13.448000  19.251493   # N_2
 465 1 7   0.000000  18.983185  13.448000  23.004119   # C_R
 466 1 5   0.000000  20.847085  13.448000  22.337121   # H_
 467 1 7   0.000000  17.657185  13.448000  22.686818   # C_R
 468 1 6   0.000000  16.600184  13.448000  23.743817   # C_2
 469 1 5   0.000000  16.444186  13.448000  21.116017   # H_
 470 1 5   0.000000  19.227984  13.448000  23.899819   # H_
 471 1 10   0.000000  15.381784  13.448000  23.329616   # O_1
 472 1 10   0.000000  17.014383  13.448000  24.962218   # O_1
 473 2 8   0.000000  17.501650  13.448000  18.032353   # N_1