 (written by mofun)

776 atoms
144 bonds
240 angles
384 dihedrals
0 impropers

9 atom types
2 bond types
3 angle types
3 dihedral types
   0.000000  26.896000 xlo xhi
   0.000000  26.896000 ylo yhi
   0.000000  26.896000 zlo zhi

Masses

 1 91.2240   # Zr3+4
 2 15.9994   # O_3
 3 12.0107   # C_3
 4 1.0079   # H_
 5 1.0079   # H_
 6 12.0107   # C_2
 7 12.0107   # C_R
 8 14.0067   # N_3
 9 15.9994   # O_1

Pair Coeffs

 1   0.069000   2.783168 # Zr3+4
 2   0.060000   3.118146 # O_3
 3   0.105000   3.430851 # C_3
 4   0.044000   2.571134 # H_
 5 0.044000 2.571134   # H_
 6 0.105000 3.430851   # C_2
 7 0.105000 3.430851   # C_R
 8 0.069000 3.260689   # N_3
 9 0.060000 3.118146   # O_1

Bond Coeffs

 1 560.312976 1.423192   # C_R N_3
 2 527.945261 1.044419   # H_ N_3

Angle Coeffs

 1 cosine/periodic  282.369526  -1  3   # C_R C_R N_3
 2 fourier  150.574599  0.317506  0.313225  0.272502   # C_R N_3 H_
 3 fourier  97.017167  0.317506  0.313225  0.272502   # H_ N_3 H_

Dihedral Coeffs

 1 harmonic 3.368555 -1 2   # C_R C_R C_R N_3 M=4
 2 harmonic 3.368555 -1 2   # H_ C_R C_R N_3 M=4
 3 harmonic 0.125000 -1 6   # C_R C_R N_3 H_ M=4

Atoms

 1 1 1   0.000000   2.475508   0.000000   0.000000   # Zr3+4
 2 1 1   0.000000  24.420492   0.000000   0.000000   # Zr3+4
 3 1 1   0.000000   0.000000   2.475508   0.000000   # Zr3+4
 4 1 1   0.000000   0.000000  24.420492   0.000000   # Zr3+4
 5 1 1   0.000000   0.000000   0.000000   2.475508   # Zr3+4
 6 1 1   0.000000   0.000000   0.000000  24.420492   # Zr3+4
 7 1 1   0.000000   2.475508  13.448000  13.448000   # Zr3+4
 8 1 1   0.000000  24.420492  13.448000  13.448000   # Zr3+4
 9 1 1   0.000000   0.000000  15.923508  13.448000   # Zr3+4
 10 1 1   0.000000   0.000000  10.972492  13.448000   # Zr3+4
 11 1 1   0.000000   0.000000  13.448000  15.923508   # Zr3+4
 12 1 1   0.000000   0.000000  13.448000  10.972492   # Zr3+4
 13 1 1   0.000000  15.923508   0.000000  13.448000   # Zr3+4
 14 1 1   0.000000  10.972492   0.000000  13.448000   # Zr3+4
 15 1 1   0.000000  13.448000   2.475508  13.448000   # Zr3+4
 16 1 1   0.000000  13.448000  24.420492  13.448000   # Zr3+4
 17 1 1   0.000000  13.448000   0.000000  15.923508   # Zr3+4
 18 1 1   0.000000  13.448000   0.000000  10.972492   # Zr3+4
 19 1 1   0.000000  15.923508  13.448000   0.000000   # Zr3+4
 20 1 1   0.000000  10.972492  13.448000   0.000000   # Zr3+4
 21 1 1   0.000000  13.448000  15.923508   0.000000   # Zr3+4
 22 1 1   0.000000  13.448000  10.972492   0.000000   # Zr3+4
 23 1 1   0.000000  13.448000  13.448000   2.475508   # Zr3+4
 24 1 1   0.000000  13.448000  13.448000  24.420492   # Zr3+4
 25 1 2   0.000000   1.221078   1.221078   1.221078   # O_3
 26 1 2   0.000000  25.674922  25.674922   1.221078   # O_3
 27 1 2   0.000000  25.674922   1.221078  25.674922   # O_3
 28 1 2   0.000000   1.221078  25.674922  25.674922   # O_3
 29 1 2   0.000000   1.221078   1.221078  25.674922   # O_3
 30 1 2   0.000000  25.674922  25.674922  25.674922   # O_3
 31 1 2   0.000000   1.221078  25.674922   1.221078   # O_3
 32 1 2   0.000000  25.674922   1.221078   1.221078   # O_3
 33 1 2   0.000000   1.221078  14.669078  14.669078   # O_3
 34 1 2   0.000000  25.674922  12.226922  14.669078   # O_3
 35 1 2   0.000000  25.674922  14.669078  12.226922   # O_3
 36 1 2   0.000000   1.221078  12.226922  12.226922   # O_3
 37 1 2   0.000000   1.221078  14.669078  12.226922   # O_3
 38 1 2   0.000000  25.674922  12.226922  12.226922   # O_3
 39 1 2   0.000000   1.221078  12.226922  14.669078   # O_3
 40 1 2   0.000000  25.674922  14.669078  14.669078   # O_3
 41 1 2   0.000000  14.669078   1.221078  14.669078   # O_3
 42 1 2   0.000000  12.226922  25.674922  14.669078   # O_3
 43 1 2   0.000000  12.226922   1.221078  12.226922   # O_3
 44 1 2   0.000000  14.669078  25.674922  12.226922   # O_3
 45 1 2   0.000000  14.669078   1.221078  12.226922   # O_3
 46 1 2   0.000000  12.226922  25.674922  12.226922   # O_3
 47 1 2   0.000000  14.669078  25.674922  14.669078   # O_3
 48 1 2   0.000000  12.226922   1.221078  14.669078   # O_3
 49 1 2   0.000000  14.669078  14.669078   1.221078   # O_3
 50 1 2   0.000000  12.226922  12.226922   1.221078   # O_3
 51 1 2   0.000000  12.226922  14.669078  25.674922   # O_3
 52 1 2   0.000000  14.669078  12.226922  25.674922   # O_3
 53 1 2   0.000000  14.669078  14.669078  25.674922   # O_3
 54 1 2   0.000000  12.226922  12.226922  25.674922   # O_3
 55 1 2   0.000000  14.669078  12.226922   1.221078   # O_3
 56 1 2   0.000000  12.226922  14.669078   1.221078   # O_3
 57 1 9   0.000000   3.566410   0.000000   1.933822   # O_1
 58 1 6   0.000000   3.152211   0.000000   3.152223   # C_2
 59 1 9   0.000000   1.933811  26.896000   3.566424   # O_1
 60 1 7   0.000000   4.209211   0.000000   4.209222   # C_R
 61 1 7   0.000000   5.535211   0.000000   3.891921   # C_R
 62 1 7   0.000000   3.891912   0.000000   5.535222   # C_R
 63 1 7   0.000000   6.508812   0.000000   4.827820   # C_R
 64 1 5   0.000000   5.780010  26.896000   2.996221   # H_
 65 1 7   0.000000   4.827813  26.896000   6.508821   # C_R
 66 1 5   0.000000   2.996212  26.896000   5.780023   # H_
 67 1 7   0.000000   6.204913   0.000000   6.204920   # C_R
 68 1 7   0.000000   7.243114  26.896000   7.243120   # C_R
 69 1 5   0.000000   7.399112   0.000000   4.558920   # H_
 70 1 7   0.000000   8.620213   0.000000   6.939219   # C_R
 71 2 8   0.000000   4.558914   0.000000   7.399122   # N_3
 72 1 7   0.000000   6.939215   0.000000   8.620220   # C_R
 73 1 7   0.000000   9.556114   0.000000   7.912818   # C_R
 74 2 8   0.000000   8.889113  26.896000   6.048918   # N_3
 75 1 7   0.000000   7.912815   0.000000   9.556119   # C_R
 76 1 5   0.000000   6.048915   0.000000   8.889121   # H_
 77 1 7   0.000000   9.238815  26.896000   9.238818   # C_R
 78 1 6   0.000000  10.295816  26.896000  10.295817   # C_2
 79 1 5   0.000000  10.451814   0.000000   7.668017   # H_
 80 1 5   0.000000   7.668016   0.000000  10.451819   # H_
 81 1 9   0.000000  11.514216   0.000000   9.881616   # O_1
 82 1 9   0.000000   9.881617   0.000000  11.514218   # O_1
 83 2 5   0.000000   8.750527  26.896000   5.081371   # H_
 84 2 5   0.000000   9.894509   0.000000   5.869691   # H_
 85 2 5   0.000000   3.553518   0.000000   7.578349   # H_
 86 2 5   0.000000   4.697499  26.896000   8.366670   # H_
 87 1 9   0.000000  23.329590   0.000000   1.933822   # O_1
 88 1 6   0.000000  23.743789   0.000000   3.152223   # C_2
 89 1 9   0.000000  24.962189   0.000000   3.566424   # O_1
 90 1 7   0.000000  22.686789   0.000000   4.209222   # C_R
 91 1 7   0.000000  21.360789  26.896000   3.891921   # C_R
 92 1 7   0.000000  23.004088   0.000000   5.535222   # C_R
 93 1 7   0.000000  20.387188  26.896000   4.827820   # C_R
 94 1 5   0.000000  21.115990  26.896000   2.996221   # H_
 95 1 7   0.000000  22.068187   0.000000   6.508821   # C_R
 96 1 5   0.000000  23.899788   0.000000   5.780023   # H_
 97 1 7   0.000000  20.691087   0.000000   6.204920   # C_R
 98 1 7   0.000000  19.652886  26.896000   7.243120   # C_R
 99 1 5   0.000000  19.496888  26.896000   4.558920   # H_
 100 1 7   0.000000  18.275787  26.896000   6.939219   # C_R
 101 2 8   0.000000  22.337086   0.000000   7.399122   # N_3
 102 1 7   0.000000  19.956785   0.000000   8.620220   # C_R
 103 1 7   0.000000  17.339886  26.896000   7.912818   # C_R
 104 2 8   0.000000  18.006887  26.896000   6.048918   # N_3
 105 1 7   0.000000  18.983185   0.000000   9.556119   # C_R
 106 1 5   0.000000  20.847085   0.000000   8.889121   # H_
 107 1 7   0.000000  17.657185  26.896000   9.238818   # C_R
 108 1 6   0.000000  16.600184  26.896000  10.295817   # C_2
 109 1 5   0.000000  16.444186  26.896000   7.668017   # H_
 110 1 5   0.000000  19.227984   0.000000  10.451819   # H_
 111 1 9   0.000000  15.381784  26.896000   9.881616   # O_1
 112 1 9   0.000000  17.014383  26.896000  11.514218   # O_1
 113 2 5   0.000000  18.145473  26.896000   5.081371   # H_
 114 2 5   0.000000  17.001491  26.896000   5.869691   # H_
 115 2 5   0.000000  23.342482   0.000000   7.578349   # H_
 116 2 5   0.000000  22.198501   0.000000   8.366670   # H_
 117 1 9   0.000000  23.329590   0.000000  24.962178   # O_1
 118 1 6   0.000000  23.743789   0.000000  23.743777   # C_2
 119 1 9   0.000000  24.962189   0.000000  23.329576   # O_1
 120 1 7   0.000000  22.686789   0.000000  22.686778   # C_R
 121 1 7   0.000000  21.360789  26.896000  23.004079   # C_R
 122 1 7   0.000000  23.004088   0.000000  21.360778   # C_R
 123 1 7   0.000000  20.387188  26.896000  22.068180   # C_R
 124 1 5   0.000000  21.115990  26.896000  23.899779   # H_
 125 1 7   0.000000  22.068187   0.000000  20.387179   # C_R
 126 1 5   0.000000  23.899788   0.000000  21.115977   # H_
 127 1 7   0.000000  20.691087   0.000000  20.691080   # C_R
 128 1 7   0.000000  19.652886  26.896000  19.652880   # C_R
 129 1 5   0.000000  19.496888  26.896000  22.337080   # H_
 130 1 7   0.000000  18.275787  26.896000  19.956781   # C_R
 131 2 8   0.000000  22.337086   0.000000  19.496878   # N_3
 132 1 7   0.000000  19.956785   0.000000  18.275780   # C_R
 133 1 7   0.000000  17.339886  26.896000  18.983182   # C_R
 134 2 8   0.000000  18.006887  26.896000  20.847082   # N_3
 135 1 7   0.000000  18.983185   0.000000  17.339881   # C_R
 136 1 5   0.000000  20.847085   0.000000  18.006879   # H_
 137 1 7   0.000000  17.657185  26.896000  17.657182   # C_R
 138 1 6   0.000000  16.600184  26.896000  16.600183   # C_2
 139 1 5   0.000000  16.444186  26.896000  19.227983   # H_
 140 1 5   0.000000  19.227984   0.000000  16.444181   # H_
 141 1 9   0.000000  15.381784  26.896000  17.014384   # O_1
 142 1 9   0.000000  17.014383  26.896000  15.381782   # O_1
 143 2 5   0.000000  18.145473  26.896000  21.814629   # H_
 144 2 5   0.000000  17.001491  26.896000  21.026309   # H_
 145 2 5   0.000000  23.342482   0.000000  19.317651   # H_
 146 2 5   0.000000  22.198501   0.000000  18.529330   # H_
 147 1 9   0.000000   3.566410   0.000000  24.962178   # O_1
 148 1 6   0.000000   3.152211   0.000000  23.743777   # C_2
 149 1 9   0.000000   1.933811   0.000000  23.329576   # O_1
 150 1 7   0.000000   4.209211   0.000000  22.686778   # C_R
 151 1 7   0.000000   5.535211   0.000000  23.004079   # C_R
 152 1 7   0.000000   3.891912   0.000000  21.360778   # C_R
 153 1 7   0.000000   6.508812   0.000000  22.068180   # C_R
 154 1 5   0.000000   5.780010   0.000000  23.899779   # H_
 155 1 7   0.000000   4.827813   0.000000  20.387179   # C_R
 156 1 5   0.000000   2.996212   0.000000  21.115977   # H_
 157 1 7   0.000000   6.204913   0.000000  20.691080   # C_R
 158 1 7   0.000000   7.243114   0.000000  19.652880   # C_R
 159 1 5   0.000000   7.399112   0.000000  22.337080   # H_
 160 1 7   0.000000   8.620213   0.000000  19.956781   # C_R
 161 2 8   0.000000   4.558914   0.000000  19.496878   # N_3
 162 1 7   0.000000   6.939215   0.000000  18.275780   # C_R
 163 1 7   0.000000   9.556114   0.000000  18.983182   # C_R
 164 2 8   0.000000   8.889113   0.000000  20.847082   # N_3
 165 1 7   0.000000   7.912815   0.000000  17.339881   # C_R
 166 1 5   0.000000   6.048915   0.000000  18.006879   # H_
 167 1 7   0.000000   9.238815   0.000000  17.657182   # C_R
 168 1 6   0.000000  10.295816   0.000000  16.600183   # C_2
 169 1 5   0.000000  10.451814   0.000000  19.227983   # H_
 170 1 5   0.000000   7.668016   0.000000  16.444181   # H_
 171 1 9   0.000000  11.514216   0.000000  17.014384   # O_1
 172 1 9   0.000000   9.881617   0.000000  15.381782   # O_1
 173 2 5   0.000000   8.750527   0.000000  21.814629   # H_
 174 2 5   0.000000   9.894509   0.000000  21.026309   # H_
 175 2 5   0.000000   3.553518   0.000000  19.317651   # H_
 176 2 5   0.000000   4.697499   0.000000  18.529330   # H_
 177 1 9   0.000000   1.933822   3.566410   0.000000   # O_1
 178 1 6   0.000000   3.152223   3.152211   0.000000   # C_2
 179 1 9   0.000000   3.566424   1.933811   0.000000   # O_1
 180 1 7   0.000000   4.209222   4.209211   0.000000   # C_R
 181 1 7   0.000000   3.891921   5.535211  26.896000   # C_R
 182 1 7   0.000000   5.535222   3.891912   0.000000   # C_R
 183 1 7   0.000000   4.827820   6.508812  26.896000   # C_R
 184 1 5   0.000000   2.996221   5.780010  26.896000   # H_
 185 1 7   0.000000   6.508821   4.827813   0.000000   # C_R
 186 1 5   0.000000   5.780023   2.996212   0.000000   # H_
 187 1 7   0.000000   6.204920   6.204913   0.000000   # C_R
 188 1 7   0.000000   7.243120   7.243114  26.896000   # C_R
 189 1 5   0.000000   4.558920   7.399112  26.896000   # H_
 190 1 7   0.000000   6.939219   8.620213  26.896000   # C_R
 191 2 8   0.000000   7.399122   4.558914   0.000000   # N_3
 192 1 7   0.000000   8.620220   6.939215   0.000000   # C_R
 193 1 7   0.000000   7.912818   9.556114  26.896000   # C_R
 194 2 8   0.000000   6.048918   8.889113  26.896000   # N_3
 195 1 7   0.000000   9.556119   7.912815   0.000000   # C_R
 196 1 5   0.000000   8.889121   6.048915   0.000000   # H_
 197 1 7   0.000000   9.238818   9.238815  26.896000   # C_R
 198 1 6   0.000000  10.295817  10.295816  26.896000   # C_2
 199 1 5   0.000000   7.668017  10.451814  26.896000   # H_
 200 1 5   0.000000  10.451819   7.668016   0.000000   # H_
 201 1 9   0.000000   9.881616  11.514216  26.896000   # O_1
 202 1 9   0.000000  11.514218   9.881617  26.896000   # O_1
 203 2 5   0.000000   5.081371   8.750527  26.896000   # H_
 204 2 5   0.000000   5.869691   9.894509  26.896000   # H_
 205 2 5   0.000000   7.578349   3.553518   0.000000   # H_
 206 2 5   0.000000   8.366670   4.697499   0.000000   # H_
 207 1 9   0.000000   1.933822  23.329590   0.000000   # O_1
 208 1 6   0.000000   3.152223  23.743789   0.000000   # C_2
 209 1 9   0.000000   3.566424  24.962189   0.000000   # O_1
 210 1 7   0.000000   4.209222  22.686789   0.000000   # C_R
 211 1 7   0.000000   3.891921  21.360789   0.000000   # C_R
 212 1 7   0.000000   5.535222  23.004088   0.000000   # C_R
 213 1 7   0.000000   4.827820  20.387188   0.000000   # C_R
 214 1 5   0.000000   2.996221  21.115990   0.000000   # H_
 215 1 7   0.000000   6.508821  22.068187   0.000000   # C_R
 216 1 5   0.000000   5.780023  23.899788   0.000000   # H_
 217 1 7   0.000000   6.204920  20.691087   0.000000   # C_R
 218 1 7   0.000000   7.243120  19.652886   0.000000   # C_R
 219 1 5   0.000000   4.558920  19.496888   0.000000   # H_
 220 1 7   0.000000   6.939219  18.275787   0.000000   # C_R
 221 2 8   0.000000   7.399122  22.337086   0.000000   # N_3
 222 1 7   0.000000   8.620220  19.956785   0.000000   # C_R
 223 1 7   0.000000   7.912818  17.339886   0.000000   # C_R
 224 2 8   0.000000   6.048918  18.006887   0.000000   # N_3
 225 1 7   0.000000   9.556119  18.983185   0.000000   # C_R
 226 1 5   0.000000   8.889121  20.847085   0.000000   # H_
 227 1 7   0.000000   9.238818  17.657185   0.000000   # C_R
 228 1 6   0.000000  10.295817  16.600184   0.000000   # C_2
 229 1 5   0.000000   7.668017  16.444186   0.000000   # H_
 230 1 5   0.000000  10.451819  19.227984   0.000000   # H_
 231 1 9   0.000000   9.881616  15.381784   0.000000   # O_1
 232 1 9   0.000000  11.514218  17.014383   0.000000   # O_1
 233 2 5   0.000000   5.081371  18.145473   0.000000   # H_
 234 2 5   0.000000   5.869691  17.001491   0.000000   # H_
 235 2 5   0.000000   7.578349  23.342482   0.000000   # H_
 236 2 5   0.000000   8.366670  22.198501   0.000000   # H_
 237 1 9   0.000000  24.962178  23.329590   0.000000   # O_1
 238 1 6   0.000000  23.743777  23.743789   0.000000   # C_2
 239 1 9   0.000000  23.329576  24.962189   0.000000   # O_1
 240 1 7   0.000000  22.686778  22.686789   0.000000   # C_R
 241 1 7   0.000000  23.004079  21.360789  26.896000   # C_R
 242 1 7   0.000000  21.360778  23.004088   0.000000   # C_R
 243 1 7   0.000000  22.068180  20.387188  26.896000   # C_R
 244 1 5   0.000000  23.899779  21.115990  26.896000   # H_
 245 1 7   0.000000  20.387179  22.068187   0.000000   # C_R
 246 1 5   0.000000  21.115977  23.899788   0.000000   # H_
 247 1 7   0.000000  20.691080  20.691087   0.000000   # C_R
 248 1 7   0.000000  19.652880  19.652886  26.896000   # C_R
 249 1 5   0.000000  22.337080  19.496888  26.896000   # H_
 250 1 7   0.000000  19.956781  18.275787  26.896000   # C_R
 251 2 8   0.000000  19.496878  22.337086   0.000000   # N_3
 252 1 7   0.000000  18.275780  19.956785   0.000000   # C_R
 253 1 7   0.000000  18.983182  17.339886  26.896000   # C_R
 254 2 8   0.000000  20.847082  18.006887  26.896000   # N_3
 255 1 7   0.000000  17.339881  18.983185   0.000000   # C_R
 256 1 5   0.000000  18.006879  20.847085   0.000000   # H_
 257 1 7   0.000000  17.657182  17.657185  26.896000   # C_R
 258 1 6   0.000000  16.600183  16.600184  26.896000   # C_2
 259 1 5   0.000000  19.227983  16.444186  26.896000   # H_
 260 1 5   0.000000  16.444181  19.227984   0.000000   # H_
 261 1 9   0.000000  17.014384  15.381784  26.896000   # O_1
 262 1 9   0.000000  15.381782  17.014383   0.000000   # O_1
 263 2 5   0.000000  21.814629  18.145473  26.896000   # H_
 264 2 5   0.000000  21.026309  17.001491  26.896000   # H_
 265 2 5   0.000000  19.317651  23.342482   0.000000   # H_
 266 2 5   0.000000  18.529330  22.198501   0.000000   # H_
 267 1 9   0.000000  24.962178   3.566410   0.000000   # O_1
 268 1 6   0.000000  23.743777   3.152211   0.000000   # C_2
 269 1 9   0.000000  23.329576   1.933811   0.000000   # O_1
 270 1 7   0.000000  22.686778   4.209211   0.000000   # C_R
 271 1 7   0.000000  23.004079   5.535211   0.000000   # C_R
 272 1 7   0.000000  21.360778   3.891912   0.000000   # C_R
 273 1 7   0.000000  22.068180   6.508812   0.000000   # C_R
 274 1 5   0.000000  23.899779   5.780010   0.000000   # H_
 275 1 7   0.000000  20.387179   4.827813   0.000000   # C_R
 276 1 5   0.000000  21.115977   2.996212   0.000000   # H_
 277 1 7   0.000000  20.691080   6.204913   0.000000   # C_R
 278 1 7   0.000000  19.652880   7.243114   0.000000   # C_R
 279 1 5   0.000000  22.337080   7.399112   0.000000   # H_
 280 1 7   0.000000  19.956781   8.620213   0.000000   # C_R
 281 2 8   0.000000  19.496878   4.558914   0.000000   # N_3
 282 1 7   0.000000  18.275780   6.939215   0.000000   # C_R
 283 1 7   0.000000  18.983182   9.556114   0.000000   # C_R
 284 2 8   0.000000  20.847082   8.889113   0.000000   # N_3
 285 1 7   0.000000  17.339881   7.912815   0.000000   # C_R
 286 1 5   0.000000  18.006879   6.048915   0.000000   # H_
 287 1 7   0.000000  17.657182   9.238815   0.000000   # C_R
 288 1 6   0.000000  16.600183  10.295816   0.000000   # C_2
 289 1 5   0.000000  19.227983  10.451814   0.000000   # H_
 290 1 5   0.000000  16.444181   7.668016   0.000000   # H_
 291 1 9   0.000000  17.014384  11.514216   0.000000   # O_1
 292 1 9   0.000000  15.381782   9.881617   0.000000   # O_1
 293 2 5   0.000000  21.814629   8.750527   0.000000   # H_
 294 2 5   0.000000  21.026309   9.894509   0.000000   # H_
 295 2 5   0.000000  19.317651   3.553518   0.000000   # H_
 296 2 5   0.000000  18.529330   4.697499   0.000000   # H_
 297 1 9   0.000000   0.000000   1.933822   3.566410   # O_1
 298 1 6   0.000000   0.000000   3.152223   3.152211   # C_2
 299 1 9   0.000000   0.000000   3.566424   1.933811   # O_1
 300 1 7   0.000000   0.000000   4.209222   4.209211   # C_R
 301 1 7   0.000000   0.000000   3.891921   5.535211   # C_R
 302 1 7   0.000000   0.000000   5.535222   3.891912   # C_R
 303 1 7   0.000000   0.000000   4.827820   6.508812   # C_R
 304 1 5   0.000000   0.000000   2.996221   5.780010   # H_
 305 1 7   0.000000   0.000000   6.508821   4.827813   # C_R
 306 1 5   0.000000   0.000000   5.780023   2.996212   # H_
 307 1 7   0.000000   0.000000   6.204920   6.204913   # C_R
 308 1 7   0.000000   0.000000   7.243120   7.243114   # C_R
 309 1 5   0.000000   0.000000   4.558920   7.399112   # H_
 310 1 7   0.000000   0.000000   6.939219   8.620213   # C_R
 311 2 8   0.000000   0.000000   7.399122   4.558914   # N_3
 312 1 7   0.000000   0.000000   8.620220   6.939215   # C_R
 313 1 7   0.000000   0.000000   7.912818   9.556114   # C_R
 314 2 8   0.000000   0.000000   6.048918   8.889113   # N_3
 315 1 7   0.000000   0.000000   9.556119   7.912815   # C_R
 316 1 5   0.000000   0.000000   8.889121   6.048915   # H_
 317 1 7   0.000000   0.000000   9.238818   9.238815   # C_R
 318 1 6   0.000000   0.000000  10.295817  10.295816   # C_2
 319 1 5   0.000000   0.000000   7.668017  10.451814   # H_
 320 1 5   0.000000   0.000000  10.451819   7.668016   # H_
 321 1 9   0.000000   0.000000   9.881616  11.514216   # O_1
 322 1 9   0.000000   0.000000  11.514218   9.881617   # O_1
 323 2 5   0.000000   0.000000   5.081371   8.750527   # H_
 324 2 5   0.000000   0.000000   5.869691   9.894509   # H_
 325 2 5   0.000000   0.000000   7.578349   3.553518   # H_
 326 2 5   0.000000   0.000000   8.366670   4.697499   # H_
 327 1 9   0.000000   0.000000   1.933822  23.329590   # O_1
 328 1 6   0.000000   0.000000   3.152223  23.743789   # C_2
 329 1 9   0.000000   0.000000   3.566424  24.962189   # O_1
 330 1 7   0.000000   0.000000   4.209222  22.686789   # C_R
 331 1 7   0.000000   0.000000   3.891921  21.360789   # C_R
 332 1 7   0.000000   0.000000   5.535222  23.004088   # C_R
 333 1 7   0.000000   0.000000   4.827820  20.387188   # C_R
 334 1 5   0.000000   0.000000   2.996221  21.115990   # H_
 335 1 7   0.000000   0.000000   6.508821  22.068187   # C_R
 336 1 5   0.000000   0.000000   5.780023  23.899788   # H_
 337 1 7   0.000000   0.000000   6.204920  20.691087   # C_R
 338 1 7   0.000000   0.000000   7.243120  19.652886   # C_R
 339 1 5   0.000000   0.000000   4.558920  19.496888   # H_
 340 1 7   0.000000   0.000000   6.939219  18.275787   # C_R
 341 2 8   0.000000   0.000000   7.399122  22.337086   # N_3
 342 1 7   0.000000   0.000000   8.620220  19.956785   # C_R
 343 1 7   0.000000   0.000000   7.912818  17.339886   # C_R
 344 2 8   0.000000   0.000000   6.048918  18.006887   # N_3
 345 1 7   0.000000   0.000000   9.556119  18.983185   # C_R
 346 1 5   0.000000   0.000000   8.889121  20.847085   # H_
 347 1 7   0.000000   0.000000   9.238818  17.657185   # C_R
 348 1 6   0.000000   0.000000  10.295817  16.600184   # C_2
 349 1 5   0.000000   0.000000   7.668017  16.444186   # H_
 350 1 5   0.000000   0.000000  10.451819  19.227984   # H_
 351 1 9   0.000000   0.000000   9.881616  15.381784   # O_1
 352 1 9   0.000000   0.000000  11.514218  17.014383   # O_1
 353 2 5   0.000000   0.000000   5.081371  18.145473   # H_
 354 2 5   0.000000   0.000000   5.869691  17.001491   # H_
 355 2 5   0.000000   0.000000   7.578349  23.342482   # H_
 356 2 5   0.000000   0.000000   8.366670  22.198501   # H_
 357 1 9   0.000000   0.000000  24.962178  23.329590   # O_1
 358 1 6   0.000000   0.000000  23.743777  23.743789   # C_2
 359 1 9   0.000000   0.000000  23.329576  24.962189   # O_1
 360 1 7   0.000000   0.000000  22.686778  22.686789   # C_R
 361 1 7   0.000000  26.896000  23.004079  21.360789   # C_R
 362 1 7   0.000000   0.000000  21.360778  23.004088   # C_R
 363 1 7   0.000000  26.896000  22.068180  20.387188   # C_R
 364 1 5   0.000000  26.896000  23.899779  21.115990   # H_
 365 1 7   0.000000   0.000000  20.387179  22.068187   # C_R
 366 1 5   0.000000   0.000000  21.115977  23.899788   # H_
 367 1 7   0.000000   0.000000  20.691080  20.691087   # C_R
 368 1 7   0.000000  26.896000  19.652880  19.652886   # C_R
 369 1 5   0.000000  26.896000  22.337080  19.496888   # H_
 370 1 7   0.000000  26.896000  19.956781  18.275787   # C_R
 371 2 8   0.000000   0.000000  19.496878  22.337086   # N_3
 372 1 7   0.000000   0.000000  18.275780  19.956785   # C_R
 373 1 7   0.000000  26.896000  18.983182  17.339886   # C_R
 374 2 8   0.000000  26.896000  20.847082  18.006887   # N_3
 375 1 7   0.000000   0.000000  17.339881  18.983185   # C_R
 376 1 5   0.000000   0.000000  18.006879  20.847085   # H_
 377 1 7   0.000000  26.896000  17.657182  17.657185   # C_R
 378 1 6   0.000000  26.896000  16.600183  16.600184   # C_2
 379 1 5   0.000000  26.896000  19.227983  16.444186   # H_
 380 1 5   0.000000   0.000000  16.444181  19.227984   # H_
 381 1 9   0.000000  26.896000  17.014384  15.381784   # O_1
 382 1 9   0.000000   0.000000  15.381782  17.014383   # O_1
 383 2 5   0.000000  26.896000  21.814629  18.145473   # H_
 384 2 5   0.000000  26.896000  21.026309  17.001491   # H_
 385 2 5   0.000000   0.000000  19.317651  23.342482   # H_
 386 2 5   0.000000   0.000000  18.529330  22.198501   # H_
 387 1 9   0.000000   0.000000  24.962178   3.566410   # O_1
 388 1 6   0.000000  26.896000  23.743777   3.152211   # C_2
 389 1 9   0.000000  26.896000  23.329576   1.933811   # O_1
 390 1 7   0.000000  26.896000  22.686778   4.209211   # C_R
 391 1 7   0.000000   0.000000  23.004079   5.535211   # C_R
 392 1 7   0.000000  26.896000  21.360778   3.891912   # C_R
 393 1 7   0.000000   0.000000  22.068180   6.508812   # C_R
 394 1 5   0.000000   0.000000  23.899779   5.780010   # H_
 395 1 7   0.000000  26.896000  20.387179   4.827813   # C_R
 396 1 5   0.000000  26.896000  21.115977   2.996212   # H_
 397 1 7   0.000000  26.896000  20.691080   6.204913   # C_R
 398 1 7   0.000000   0.000000  19.652880   7.243114   # C_R
 399 1 5   0.000000   0.000000  22.337080   7.399112   # H_
 400 1 7   0.000000   0.000000  19.956781   8.620213   # C_R
 401 2 8   0.000000  26.896000  19.496878   4.558914   # N_3
 402 1 7   0.000000  26.896000  18.275780   6.939215   # C_R
 403 1 7   0.000000   0.000000  18.983182   9.556114   # C_R
 404 2 8   0.000000   0.000000  20.847082   8.889113   # N_3
 405 1 7   0.000000  26.896000  17.339881   7.912815   # C_R
 406 1 5   0.000000  26.896000  18.006879   6.048915   # H_
 407 1 7   0.000000   0.000000  17.657182   9.238815   # C_R
 408 1 6   0.000000   0.000000  16.600183  10.295816   # C_2
 409 1 5   0.000000   0.000000  19.227983  10.451814   # H_
 410 1 5   0.000000  26.896000  16.444181   7.668016   # H_
 411 1 9   0.000000   0.000000  17.014384  11.514216   # O_1
 412 1 9   0.000000   0.000000  15.381782   9.881617   # O_1
 413 2 5   0.000000   0.000000  21.814629   8.750527   # H_
 414 2 5   0.000000   0.000000  21.026309   9.894509   # H_
 415 2 5   0.000000  26.896000  19.317651   3.553518   # H_
 416 2 5   0.000000  26.896000  18.529330   4.697499   # H_
 417 1 9   0.000000   3.566410  13.448000  15.381822   # O_1
 418 1 6   0.000000   3.152211  13.448000  16.600223   # C_2
 419 1 9   0.000000   1.933811  13.448000  17.014424   # O_1
 420 1 7   0.000000   4.209211  13.448000  17.657222   # C_R
 421 1 7   0.000000   5.535211  13.448000  17.339921   # C_R
 422 1 7   0.000000   3.891912  13.448000  18.983222   # C_R
 423 1 7   0.000000   6.508812  13.448000  18.275820   # C_R
 424 1 5   0.000000   5.780010  13.448000  16.444221   # H_
 425 1 7   0.000000   4.827813  13.448000  19.956821   # C_R
 426 1 5   0.000000   2.996212  13.448000  19.228023   # H_
 427 1 7   0.000000   6.204913  13.448000  19.652920   # C_R
 428 1 7   0.000000   7.243114  13.448000  20.691120   # C_R
 429 1 5   0.000000   7.399112  13.448000  18.006920   # H_
 430 1 7   0.000000   8.620213  13.448000  20.387219   # C_R
 431 2 8   0.000000   4.558914  13.448000  20.847122   # N_3
 432 1 7   0.000000   6.939215  13.448000  22.068220   # C_R
 433 1 7   0.000000   9.556114  13.448000  21.360818   # C_R
 434 2 8   0.000000   8.889113  13.448000  19.496918   # N_3
 435 1 7   0.000000   7.912815  13.448000  23.004119   # C_R
 436 1 5   0.000000   6.048915  13.448000  22.337121   # H_
 437 1 7   0.000000   9.238815  13.448000  22.686818   # C_R
 438 1 6   0.000000  10.295816  13.448000  23.743817   # C_2
 439 1 5   0.000000  10.451814  13.448000  21.116017   # H_
 440 1 5   0.000000   7.668016  13.448000  23.899819   # H_
 441 1 9   0.000000  11.514216  13.448000  23.329616   # O_1
 442 1 9   0.000000   9.881617  13.448000  24.962218   # O_1
 443 2 5   0.000000   8.750527  13.448000  18.529371   # H_
 444 2 5   0.000000   9.894509  13.448000  19.317691   # H_
 445 2 5   0.000000   3.553518  13.448000  21.026349   # H_
 446 2 5   0.000000   4.697499  13.448000  21.814670   # H_
 447 1 9   0.000000  23.329590  13.448000  15.381822   # O_1
 448 1 6   0.000000  23.743789  13.448000  16.600223   # C_2
 449 1 9   0.000000  24.962189  13.448000  17.014424   # O_1
 450 1 7   0.000000  22.686789  13.448000  17.657222   # C_R
 451 1 7   0.000000  21.360789  13.448000  17.339921   # C_R
 452 1 7   0.000000  23.004088  13.448000  18.983222   # C_R
 453 1 7   0.000000  20.387188  13.448000  18.275820   # C_R
 454 1 5   0.000000  21.115990  13.448000  16.444221   # H_
 455 1 7   0.000000  22.068187  13.448000  19.956821   # C_R
 456 1 5   0.000000  23.899788  13.448000  19.228023   # H_
 457 1 7   0.000000  20.691087  13.448000  19.652920   # C_R
 458 1 7   0.000000  19.652886  13.448000  20.691120   # C_R
 459 1 5   0.000000  19.496888  13.448000  18.006920   # H_
 460 1 7   0.000000  18.275787  13.448000  20.387219   # C_R
 461 2 8   0.000000  22.337086  13.448000  20.847122   # N_3
 462 1 7   0.000000  19.956785  13.448000  22.068220   # C_R
 463 1 7   0.000000  17.339886  13.448000  21.360818   # C_R
 464 2 8   0.000000  18.006887  13.448000  19.496918   # N_3
 465 1 7   0.000000  18.983185  13.448000  23.004119   # C_R
 466 1 5   0.000000  20.847085  13.448000  22.337121   # H_
 467 1 7   0.000000  17.657185  13.448000  22.686818   # C_R
 468 1 6   0.000000  16.600184  13.448000  23.743817   # C_2
 469 1 5   0.000000  16.444186  13.448000  21.116017   # H_
 470 1 5   0.000000  19.227984  13.448000  23.899819   # H_
 471 1 9   0.000000  15.381784  13.448000  23.329616   # O_1
 472 1 9   0.000000  17.014383  13.448000  24.962218   # O_1
 473 2 5   0.000000  18.145473  13.448000  18.529371   # H_
 474 2 5   0.000000  17.001491  13.448000  19.317691   # H_
 475 2 5   0.000000  23.342482  13.448000  21.026349   # H_
 476 2 5   0.000000  22.198501  13.448000  21.814670   # H_