 (written by mofun)

1152 atoms
816 bonds
1680 angles
2832 dihedrals
0 impropers

10 atom types
5 bond types
9 angle types
14 dihedral types
   0.000000  20.700400 xlo xhi
   0.000000  20.700400 ylo yhi
   0.000000  20.700400 zlo zhi

Masses

 1 91.2240   # Zr3+4
 2 15.9994   # O_3
 3 12.0107   # C_3
 4 1.0079   # H_
 5 1.0079   # H_
 6 12.0107   # C_2
 7 12.0107   # C_3
 8 12.0107   # C_R
 9 14.0067   # N_3
 10 15.9994   # O_1

Pair Coeffs

 1   0.069000   2.783168 # Zr3+4
 2   0.060000   3.118146 # O_3
 3   0.105000   3.430851 # C_3
 4   0.044000   2.571134 # H_
 5 0.044000 2.571134   # H_
 6 0.105000 3.430851   # C_2
 7 0.105000 3.430851   # C_3
 8 0.105000 3.430851   # C_R
 9 0.069000 3.260689   # N_3
 10 0.060000 3.118146   # O_1

Bond Coeffs

 1 560.312976 1.423192   # C_R N_3
 2 527.945261 1.044419   # H_ N_3
 3 528.634538 1.451071   # C_3 N_3
 4 331.069389 1.109401   # C_3 H_
 5 349.795899 1.514000   # C_3 C_3

Angle Coeffs

 1 cosine/periodic  282.369526  -1  3   # C_R C_R N_3
 2 fourier  268.482172  0.317506  0.313225  0.272502   # C_3 N_3 C_R
 3 fourier  150.574599  0.317506  0.313225  0.272502   # C_R N_3 H_
 4 fourier  144.695053  0.317506  0.313225  0.272502   # C_3 N_3 H_
 5 fourier  169.780468  0.343737  0.374972  0.281246   # H_ C_3 N_3
 6 fourier  303.297032  0.343737  0.374972  0.281246   # C_3 C_3 N_3
 7 fourier  117.318683  0.343737  0.374972  0.281246   # C_3 C_3 H_
 8 fourier  214.211821  0.343737  0.374972  0.281246   # C_3 C_3 C_3
 9 fourier  75.498766  0.343737  0.374972  0.281246   # H_ C_3 H_

Dihedral Coeffs

 1 harmonic 3.368555 -1 2   # H_ C_R C_R N_3 M=4
 2 harmonic 3.368555 -1 2   # C_R C_R C_R N_3 M=4
 3 harmonic 3.368555 -1 2   # C_2 C_R C_R N_3 M=4
 4 harmonic 0.125000 -1 6   # C_3 N_3 C_R C_R M=4
 5 harmonic 0.125000 -1 6   # C_R C_R N_3 H_ M=4
 6 harmonic 0.081375 1 3   # C_3 C_3 N_3 C_R M=6
 7 harmonic 0.081375 1 3   # C_R N_3 C_3 H_ M=6
 8 harmonic 0.081375 1 3   # C_3 C_3 N_3 H_ M=6
 9 harmonic 0.081375 1 3   # H_ C_3 N_3 H_ M=6
 10 harmonic 0.117722 1 3   # C_3 C_3 C_3 N_3 M=9
 11 harmonic 0.117722 1 3   # H_ C_3 C_3 N_3 M=9
 12 harmonic 0.117722 1 3   # C_3 C_3 C_3 H_ M=9
 13 harmonic 0.117722 1 3   # H_ C_3 C_3 H_ M=9
 14 harmonic 0.117722 1 3   # C_3 C_3 C_3 C_3 M=9

Atoms

 1 1 1   0.000000   2.481771   0.000000   0.000000   # Zr3+4
 2 1 1   0.000000   2.481771  10.350200  10.350200   # Zr3+4
 3 1 1   0.000000  12.831971   0.000000  10.350200   # Zr3+4
 4 1 1   0.000000  12.831971  10.350200   0.000000   # Zr3+4
 5 1 1   0.000000  18.218629   0.000000   0.000000   # Zr3+4
 6 1 1   0.000000  18.218629  10.350200  10.350200   # Zr3+4
 7 1 1   0.000000   7.868429   0.000000  10.350200   # Zr3+4
 8 1 1   0.000000   7.868429  10.350200   0.000000   # Zr3+4
 9 1 1   0.000000   0.000000   2.481771   0.000000   # Zr3+4
 10 1 1   0.000000   0.000000  12.831971  10.350200   # Zr3+4
 11 1 1   0.000000  10.350200   2.481771  10.350200   # Zr3+4
 12 1 1   0.000000  10.350200  12.831971   0.000000   # Zr3+4
 13 1 1   0.000000   0.000000  18.218629   0.000000   # Zr3+4
 14 1 1   0.000000   0.000000   7.868429  10.350200   # Zr3+4
 15 1 1   0.000000  10.350200  18.218629  10.350200   # Zr3+4
 16 1 1   0.000000  10.350200   7.868429   0.000000   # Zr3+4
 17 1 1   0.000000   0.000000   0.000000   2.481771   # Zr3+4
 18 1 1   0.000000   0.000000  10.350200  12.831971   # Zr3+4
 19 1 1   0.000000  10.350200   0.000000  12.831971   # Zr3+4
 20 1 1   0.000000  10.350200  10.350200   2.481771   # Zr3+4
 21 1 1   0.000000   0.000000   0.000000  18.218629   # Zr3+4
 22 1 1   0.000000   0.000000  10.350200   7.868429   # Zr3+4
 23 1 1   0.000000  10.350200   0.000000   7.868429   # Zr3+4
 24 1 1   0.000000  10.350200  10.350200  18.218629   # Zr3+4
 25 1 2   0.000000   1.161292   9.188908   9.188908   # O_3
 26 1 2   0.000000  11.511492  19.539108   9.188908   # O_3
 27 1 2   0.000000  11.511492   9.188908  19.539108   # O_3
 28 1 2   0.000000   9.188908   1.161292   9.188908   # O_3
 29 1 2   0.000000   9.188908  11.511492  19.539108   # O_3
 30 1 2   0.000000  19.539108  19.539108   1.161292   # O_3
 31 1 2   0.000000  19.539108   9.188908  11.511492   # O_3
 32 1 2   0.000000   1.161292   1.161292   1.161292   # O_3
 33 1 2   0.000000  11.511492  11.511492   1.161292   # O_3
 34 1 2   0.000000  19.539108   1.161292   1.161292   # O_3
 35 1 2   0.000000  19.539108  11.511492  11.511492   # O_3
 36 1 2   0.000000   9.188908   1.161292  11.511492   # O_3
 37 1 2   0.000000   9.188908  11.511492   1.161292   # O_3
 38 1 2   0.000000   1.161292  19.539108   1.161292   # O_3
 39 1 2   0.000000   1.161292   9.188908  11.511492   # O_3
 40 1 2   0.000000  11.511492  19.539108  11.511492   # O_3
 41 1 2   0.000000  11.511492   9.188908   1.161292   # O_3
 42 1 2   0.000000  19.539108  19.539108  19.539108   # O_3
 43 1 2   0.000000  19.539108   9.188908   9.188908   # O_3
 44 1 2   0.000000   9.188908  19.539108   9.188908   # O_3
 45 1 2   0.000000   9.188908   9.188908  19.539108   # O_3
 46 1 2   0.000000   1.161292   1.161292  19.539108   # O_3
 47 1 2   0.000000   1.161292  11.511492   9.188908   # O_3
 48 1 2   0.000000  11.511492   1.161292   9.188908   # O_3
 49 1 6   0.000000   3.179581   0.000000  17.520819   # C_2
 50 1 10   0.000000   3.528595   0.000000  18.727815   # O_1
 51 1 10   0.000000   1.972577  20.700400  17.171832   # O_1
 52 1 8   0.000000   4.243569   0.000000  16.456806   # C_R
 53 1 8   0.000000   3.816555  20.700400  15.162811   # C_R
 54 2 9   0.000000   2.466601   0.048556  14.729799   # N_3
 55 1 5   0.000000   4.580531  20.700400  13.051803   # H_
 56 1 8   0.000000   4.812543  20.700400  14.167800   # C_R
 57 1 8   0.000000   6.106548   0.000000  14.593785   # C_R
 58 1 8   0.000000   6.532563   0.000000  15.887781   # C_R
 59 1 8   0.000000   5.537574   0.000000  16.883792   # C_R
 60 1 5   0.000000   5.769587   0.000000  17.999789   # H_
 61 2 9   0.000000   7.854464  20.458436  16.265059   # N_3
 62 1 10   0.000000   8.377540   0.000000  13.878760   # O_1
 63 1 6   0.000000   7.170536   0.000000  13.529773   # C_2
 64 1 10   0.000000   6.821523  20.700400  12.322777   # O_1
 65 2 5   0.000000   1.898873  20.680706  15.602959   # H_
 66 2 7   0.000000   2.104394   1.250088  13.972446   # C_3
 67 2 5   0.000000   2.782944   1.401031  13.125220   # H_
 68 2 7   0.000000   2.060684   2.515890  14.844675   # C_3
 69 2 7   0.000000   0.668746   1.080766  13.434852   # C_3
 70 2 7   0.000000  20.591120   2.303221  13.907385   # C_3
 71 2 5   0.000000  19.530389   2.085890  14.061970   # H_
 72 2 5   0.000000  20.668153   3.106340  13.164647   # H_
 73 2 7   0.000000   0.592049   2.709290  15.189206   # C_3
 74 2 5   0.000000   2.402546   3.371836  14.248669   # H_
 75 2 5   0.000000   2.684330   2.477549  15.741489   # H_
 76 2 5   0.000000   0.299188   2.047796  16.012288   # H_
 77 2 5   0.000000   0.366257   3.739519  15.478715   # H_
 78 2 5   0.000000   0.196612   0.168206  13.819047   # H_
 79 2 5   0.000000   0.657929   1.012677  12.341597   # H_
 80 2 7   0.000000   8.441017  20.631996  17.565358   # C_3
 81 2 5   0.000000   8.470225  20.637619  15.443774   # H_
 82 2 7   0.000000   9.968153  20.605009  17.444078   # C_3
 83 2 5   0.000000  10.291405  19.816807  16.748841   # H_
 84 2 7   0.000000  10.457548  20.276508  18.845179   # C_3
 85 2 5   0.000000  10.373853   0.851218  17.073503   # H_
 86 2 7   0.000000   9.355476  19.433647  19.477120   # C_3
 87 2 5   0.000000  10.598512   0.497370  19.421736   # H_
 88 2 5   0.000000  11.416288  19.748662  18.826486   # H_
 89 2 7   0.000000   8.191877  19.435443  18.488164   # C_3
 90 2 5   0.000000   9.051905  19.870764  20.435009   # H_
 91 2 5   0.000000   9.692427  18.411353  19.677390   # H_
 92 2 5   0.000000   7.237185  19.492074  19.017699   # H_
 93 2 5   0.000000   8.188636  18.496767  17.919105   # H_
 94 2 5   0.000000   8.127631   0.872606  18.036709   # H_
 95 1 6   0.000000   3.179581  10.350200   7.170619   # C_2
 96 1 10   0.000000   3.528595  10.350200   8.377615   # O_1
 97 1 10   0.000000   1.972577  10.350200   6.821632   # O_1
 98 1 8   0.000000   4.243569  10.350200   6.106606   # C_R
 99 1 8   0.000000   3.816555  10.350200   4.812611   # C_R
 100 2 9   0.000000   2.466601  10.398756   4.379599   # N_3
 101 1 5   0.000000   4.580531  10.350200   2.701603   # H_
 102 1 8   0.000000   4.812543  10.350200   3.817600   # C_R
 103 1 8   0.000000   6.106548  10.350200   4.243585   # C_R
 104 1 8   0.000000   6.532563  10.350200   5.537581   # C_R
 105 1 8   0.000000   5.537574  10.350200   6.533592   # C_R
 106 1 5   0.000000   5.769587  10.350200   7.649589   # H_
 107 2 9   0.000000   7.854464  10.108236   5.914859   # N_3
 108 1 10   0.000000   8.377540  10.350200   3.528560   # O_1
 109 1 6   0.000000   7.170536  10.350200   3.179573   # C_2
 110 1 10   0.000000   6.821523  10.350200   1.972577   # O_1
 111 2 5   0.000000   1.898873  10.330506   5.252759   # H_
 112 2 7   0.000000   2.104394  11.600288   3.622246   # C_3
 113 2 5   0.000000   2.782944  11.751231   2.775020   # H_
 114 2 7   0.000000   2.060684  12.866090   4.494475   # C_3
 115 2 7   0.000000   0.668746  11.430966   3.084652   # C_3
 116 2 7   0.000000  20.591120  12.653421   3.557185   # C_3
 117 2 5   0.000000  19.530389  12.436090   3.711770   # H_
 118 2 5   0.000000  20.668153  13.456540   2.814447   # H_
 119 2 7   0.000000   0.592049  13.059490   4.839006   # C_3
 120 2 5   0.000000   2.402546  13.722036   3.898469   # H_
 121 2 5   0.000000   2.684330  12.827749   5.391289   # H_
 122 2 5   0.000000   0.299188  12.397996   5.662088   # H_
 123 2 5   0.000000   0.366257  14.089719   5.128515   # H_
 124 2 5   0.000000   0.196612  10.518406   3.468847   # H_
 125 2 5   0.000000   0.657929  11.362877   1.991397   # H_
 126 2 7   0.000000   8.441017  10.281796   7.215158   # C_3
 127 2 5   0.000000   8.470225  10.287419   5.093574   # H_
 128 2 7   0.000000   9.968153  10.254809   7.093878   # C_3
 129 2 5   0.000000  10.291405   9.466607   6.398641   # H_
 130 2 7   0.000000  10.457548   9.926308   8.494979   # C_3
 131 2 5   0.000000  10.373853  11.201418   6.723303   # H_
 132 2 7   0.000000   9.355476   9.083447   9.126920   # C_3
 133 2 5   0.000000  10.598512  10.847570   9.071536   # H_
 134 2 5   0.000000  11.416288   9.398462   8.476286   # H_
 135 2 7   0.000000   8.191877   9.085243   8.137964   # C_3
 136 2 5   0.000000   9.051905   9.520564  10.084809   # H_
 137 2 5   0.000000   9.692427   8.061153   9.327190   # H_
 138 2 5   0.000000   7.237185   9.141874   8.667499   # H_
 139 2 5   0.000000   8.188636   8.146567   7.568905   # H_
 140 2 5   0.000000   8.127631  11.222806   7.686509   # H_
 141 1 6   0.000000  13.529781   0.000000   7.170619   # C_2
 142 1 10   0.000000  13.878795   0.000000   8.377615   # O_1
 143 1 10   0.000000  12.322777  20.700400   6.821632   # O_1
 144 1 8   0.000000  14.593769   0.000000   6.106606   # C_R
 145 1 8   0.000000  14.166755  20.700400   4.812611   # C_R
 146 2 9   0.000000  12.816801   0.048556   4.379599   # N_3
 147 1 5   0.000000  14.930731  20.700400   2.701603   # H_
 148 1 8   0.000000  15.162743  20.700400   3.817600   # C_R
 149 1 8   0.000000  16.456748   0.000000   4.243585   # C_R
 150 1 8   0.000000  16.882763   0.000000   5.537581   # C_R
 151 1 8   0.000000  15.887774   0.000000   6.533592   # C_R
 152 1 5   0.000000  16.119787   0.000000   7.649589   # H_
 153 2 9   0.000000  18.204664  20.458436   5.914859   # N_3
 154 1 10   0.000000  18.727740   0.000000   3.528560   # O_1
 155 1 6   0.000000  17.520736   0.000000   3.179573   # C_2
 156 1 10   0.000000  17.171723  20.700400   1.972577   # O_1
 157 2 5   0.000000  12.249073  20.680706   5.252759   # H_
 158 2 7   0.000000  12.454594   1.250088   3.622246   # C_3
 159 2 5   0.000000  13.133144   1.401031   2.775020   # H_
 160 2 7   0.000000  12.410884   2.515890   4.494475   # C_3
 161 2 7   0.000000  11.018946   1.080766   3.084652   # C_3
 162 2 7   0.000000  10.240920   2.303221   3.557185   # C_3
 163 2 5   0.000000   9.180189   2.085890   3.711770   # H_
 164 2 5   0.000000  10.317953   3.106340   2.814447   # H_
 165 2 7   0.000000  10.942249   2.709290   4.839006   # C_3
 166 2 5   0.000000  12.752746   3.371836   3.898469   # H_
 167 2 5   0.000000  13.034530   2.477549   5.391289   # H_
 168 2 5   0.000000  10.649388   2.047796   5.662088   # H_
 169 2 5   0.000000  10.716457   3.739519   5.128515   # H_
 170 2 5   0.000000  10.546812   0.168206   3.468847   # H_
 171 2 5   0.000000  11.008129   1.012677   1.991397   # H_
 172 2 7   0.000000  18.791217  20.631996   7.215158   # C_3
 173 2 5   0.000000  18.820425  20.637619   5.093574   # H_
 174 2 7   0.000000  20.318353  20.605009   7.093878   # C_3
 175 2 5   0.000000  20.641605  19.816807   6.398641   # H_
 176 2 7   0.000000   0.107348  20.276508   8.494979   # C_3
 177 2 5   0.000000   0.023653   0.851218   6.723303   # H_
 178 2 7   0.000000  19.705676  19.433647   9.126920   # C_3
 179 2 5   0.000000   0.248312   0.497370   9.071536   # H_
 180 2 5   0.000000   1.066088  19.748662   8.476286   # H_
 181 2 7   0.000000  18.542077  19.435443   8.137964   # C_3
 182 2 5   0.000000  19.402105  19.870764  10.084809   # H_
 183 2 5   0.000000  20.042627  18.411353   9.327190   # H_
 184 2 5   0.000000  17.587385  19.492074   8.667499   # H_
 185 2 5   0.000000  18.538836  18.496767   7.568905   # H_
 186 2 5   0.000000  18.477831   0.872606   7.686509   # H_
 187 1 6   0.000000  13.529781  10.350200  17.520819   # C_2
 188 1 10   0.000000  13.878795  10.350200  18.727815   # O_1
 189 1 10   0.000000  12.322777  10.350200  17.171832   # O_1
 190 1 8   0.000000  14.593769  10.350200  16.456806   # C_R
 191 1 8   0.000000  14.166755  10.350200  15.162811   # C_R
 192 2 9   0.000000  12.816801  10.398756  14.729799   # N_3
 193 1 5   0.000000  14.930731  10.350200  13.051803   # H_
 194 1 8   0.000000  15.162743  10.350200  14.167800   # C_R
 195 1 8   0.000000  16.456748  10.350200  14.593785   # C_R
 196 1 8   0.000000  16.882763  10.350200  15.887781   # C_R
 197 1 8   0.000000  15.887774  10.350200  16.883792   # C_R
 198 1 5   0.000000  16.119787  10.350200  17.999789   # H_
 199 2 9   0.000000  18.204664  10.108236  16.265059   # N_3
 200 1 10   0.000000  18.727740  10.350200  13.878760   # O_1
 201 1 6   0.000000  17.520736  10.350200  13.529773   # C_2
 202 1 10   0.000000  17.171723  10.350200  12.322777   # O_1
 203 2 5   0.000000  12.249073  10.330506  15.602959   # H_
 204 2 7   0.000000  12.454594  11.600288  13.972446   # C_3
 205 2 5   0.000000  13.133144  11.751231  13.125220   # H_
 206 2 7   0.000000  12.410884  12.866090  14.844675   # C_3
 207 2 7   0.000000  11.018946  11.430966  13.434852   # C_3
 208 2 7   0.000000  10.240920  12.653421  13.907385   # C_3
 209 2 5   0.000000   9.180189  12.436090  14.061970   # H_
 210 2 5   0.000000  10.317953  13.456540  13.164647   # H_
 211 2 7   0.000000  10.942249  13.059490  15.189206   # C_3
 212 2 5   0.000000  12.752746  13.722036  14.248669   # H_
 213 2 5   0.000000  13.034530  12.827749  15.741489   # H_
 214 2 5   0.000000  10.649388  12.397996  16.012288   # H_
 215 2 5   0.000000  10.716457  14.089719  15.478715   # H_
 216 2 5   0.000000  10.546812  10.518406  13.819047   # H_
 217 2 5   0.000000  11.008129  11.362877  12.341597   # H_
 218 2 7   0.000000  18.791217  10.281796  17.565358   # C_3
 219 2 5   0.000000  18.820425  10.287419  15.443774   # H_
 220 2 7   0.000000  20.318353  10.254809  17.444078   # C_3
 221 2 5   0.000000  20.641605   9.466607  16.748841   # H_
 222 2 7   0.000000   0.107348   9.926308  18.845179   # C_3
 223 2 5   0.000000   0.023653  11.201418  17.073503   # H_
 224 2 7   0.000000  19.705676   9.083447  19.477120   # C_3
 225 2 5   0.000000   0.248312  10.847570  19.421736   # H_
 226 2 5   0.000000   1.066088   9.398462  18.826486   # H_
 227 2 7   0.000000  18.542077   9.085243  18.488164   # C_3
 228 2 5   0.000000  19.402105   9.520564  20.435009   # H_
 229 2 5   0.000000  20.042627   8.061153  19.677390   # H_
 230 2 5   0.000000  17.587385   9.141874  19.017699   # H_
 231 2 5   0.000000  18.538836   8.146567  17.919105   # H_
 232 2 5   0.000000  18.477831  11.222806  18.036709   # H_
 233 1 6   0.000000  17.520819   0.000000  17.520819   # C_2
 234 1 10   0.000000  17.171805   0.000000  18.727815   # O_1
 235 1 10   0.000000  18.727823   0.000000  17.171832   # O_1
 236 1 8   0.000000  16.456831   0.000000  16.456806   # C_R
 237 1 8   0.000000  16.883845   0.000000  15.162811   # C_R
 238 2 9   0.000000  18.233799  20.651844  14.729799   # N_3
 239 1 5   0.000000  16.119869   0.000000  13.051803   # H_
 240 1 8   0.000000  15.887857   0.000000  14.167800   # C_R
 241 1 8   0.000000  14.593852   0.000000  14.593785   # C_R
 242 1 8   0.000000  14.167837   0.000000  15.887781   # C_R
 243 1 8   0.000000  15.162826   0.000000  16.883792   # C_R
 244 1 5   0.000000  14.930813   0.000000  17.999789   # H_
 245 2 9   0.000000  12.845936   0.241964  16.265059   # N_3
 246 1 10   0.000000  12.322860   0.000000  13.878760   # O_1
 247 1 6   0.000000  13.529864   0.000000  13.529773   # C_2
 248 1 10   0.000000  13.878877   0.000000  12.322777   # O_1
 249 2 5   0.000000  18.801527   0.019694  15.602959   # H_
 250 2 7   0.000000  18.596006  19.450312  13.972446   # C_3
 251 2 5   0.000000  17.917456  19.299369  13.125220   # H_
 252 2 7   0.000000  18.639716  18.184510  14.844675   # C_3
 253 2 7   0.000000  20.031654  19.619634  13.434852   # C_3
 254 2 7   0.000000   0.109280  18.397179  13.907385   # C_3
 255 2 5   0.000000   1.170011  18.614510  14.061970   # H_
 256 2 5   0.000000   0.032247  17.594060  13.164647   # H_
 257 2 7   0.000000  20.108351  17.991110  15.189206   # C_3
 258 2 5   0.000000  18.297854  17.328564  14.248669   # H_
 259 2 5   0.000000  18.016070  18.222851  15.741489   # H_
 260 2 5   0.000000  20.401212  18.652604  16.012288   # H_
 261 2 5   0.000000  20.334143  16.960881  15.478715   # H_
 262 2 5   0.000000  20.503788  20.532194  13.819047   # H_
 263 2 5   0.000000  20.042471  19.687723  12.341597   # H_
 264 2 7   0.000000  12.259383   0.068404  17.565358   # C_3
 265 2 5   0.000000  12.230175   0.062781  15.443774   # H_
 266 2 7   0.000000  10.732247   0.095391  17.444078   # C_3
 267 2 5   0.000000  10.408995   0.883593  16.748841   # H_
 268 2 7   0.000000  10.242852   0.423892  18.845179   # C_3
 269 2 5   0.000000  10.326547  19.849182  17.073503   # H_
 270 2 7   0.000000  11.344924   1.266753  19.477120   # C_3
 271 2 5   0.000000  10.101888  20.203030  19.421736   # H_
 272 2 5   0.000000   9.284112   0.951738  18.826486   # H_
 273 2 7   0.000000  12.508523   1.264957  18.488164   # C_3
 274 2 5   0.000000  11.648495   0.829636  20.435009   # H_
 275 2 5   0.000000  11.007973   2.289047  19.677390   # H_
 276 2 5   0.000000  13.463215   1.208326  19.017699   # H_
 277 2 5   0.000000  12.511764   2.203633  17.919105   # H_
 278 2 5   0.000000  12.572769  19.827794  18.036709   # H_
 279 1 6   0.000000  17.520819  10.350200   7.170619   # C_2
 280 1 10   0.000000  17.171805  10.350200   8.377615   # O_1
 281 1 10   0.000000  18.727823  10.350200   6.821632   # O_1
 282 1 8   0.000000  16.456831  10.350200   6.106606   # C_R
 283 1 8   0.000000  16.883845  10.350200   4.812611   # C_R
 284 2 9   0.000000  18.233799  10.301644   4.379599   # N_3
 285 1 5   0.000000  16.119869  10.350200   2.701603   # H_
 286 1 8   0.000000  15.887857  10.350200   3.817600   # C_R
 287 1 8   0.000000  14.593852  10.350200   4.243585   # C_R
 288 1 8   0.000000  14.167837  10.350200   5.537581   # C_R
 289 1 8   0.000000  15.162826  10.350200   6.533592   # C_R
 290 1 5   0.000000  14.930813  10.350200   7.649589   # H_
 291 2 9   0.000000  12.845936  10.592164   5.914859   # N_3
 292 1 10   0.000000  12.322860  10.350200   3.528560   # O_1
 293 1 6   0.000000  13.529864  10.350200   3.179573   # C_2
 294 1 10   0.000000  13.878877  10.350200   1.972577   # O_1
 295 2 5   0.000000  18.801527  10.369894   5.252759   # H_
 296 2 7   0.000000  18.596006   9.100112   3.622246   # C_3
 297 2 5   0.000000  17.917456   8.949169   2.775020   # H_
 298 2 7   0.000000  18.639716   7.834310   4.494475   # C_3
 299 2 7   0.000000  20.031654   9.269434   3.084652   # C_3
 300 2 7   0.000000   0.109279   8.046979   3.557185   # C_3
 301 2 5   0.000000   1.170011   8.264310   3.711770   # H_
 302 2 5   0.000000   0.032247   7.243860   2.814447   # H_
 303 2 7   0.000000  20.108351   7.640910   4.839006   # C_3
 304 2 5   0.000000  18.297854   6.978364   3.898469   # H_
 305 2 5   0.000000  18.016070   7.872651   5.391289   # H_
 306 2 5   0.000000  20.401212   8.302404   5.662088   # H_
 307 2 5   0.000000  20.334143   6.610681   5.128515   # H_
 308 2 5   0.000000  20.503788  10.181994   3.468847   # H_
 309 2 5   0.000000  20.042471   9.337523   1.991397   # H_
 310 2 7   0.000000  12.259383  10.418604   7.215158   # C_3
 311 2 5   0.000000  12.230175  10.412981   5.093574   # H_
 312 2 7   0.000000  10.732247  10.445591   7.093878   # C_3
 313 2 5   0.000000  10.408995  11.233793   6.398641   # H_
 314 2 7   0.000000  10.242852  10.774092   8.494979   # C_3
 315 2 5   0.000000  10.326547   9.498982   6.723303   # H_
 316 2 7   0.000000  11.344924  11.616953   9.126920   # C_3
 317 2 5   0.000000  10.101888   9.852830   9.071536   # H_
 318 2 5   0.000000   9.284112  11.301938   8.476286   # H_
 319 2 7   0.000000  12.508523  11.615157   8.137964   # C_3
 320 2 5   0.000000  11.648495  11.179836  10.084809   # H_
 321 2 5   0.000000  11.007973  12.639247   9.327190   # H_
 322 2 5   0.000000  13.463215  11.558526   8.667499   # H_
 323 2 5   0.000000  12.511764  12.553833   7.568905   # H_
 324 2 5   0.000000  12.572769   9.477594   7.686509   # H_
 325 1 6   0.000000   7.170619   0.000000   7.170619   # C_2
 326 1 10   0.000000   6.821605   0.000000   8.377615   # O_1
 327 1 10   0.000000   8.377623   0.000000   6.821632   # O_1
 328 1 8   0.000000   6.106631   0.000000   6.106606   # C_R
 329 1 8   0.000000   6.533645   0.000000   4.812611   # C_R
 330 2 9   0.000000   7.883599  20.651844   4.379599   # N_3
 331 1 5   0.000000   5.769669   0.000000   2.701603   # H_
 332 1 8   0.000000   5.537657   0.000000   3.817600   # C_R
 333 1 8   0.000000   4.243652   0.000000   4.243585   # C_R
 334 1 8   0.000000   3.817637   0.000000   5.537581   # C_R
 335 1 8   0.000000   4.812626   0.000000   6.533592   # C_R
 336 1 5   0.000000   4.580613   0.000000   7.649589   # H_
 337 2 9   0.000000   2.495736   0.241964   5.914859   # N_3
 338 1 10   0.000000   1.972660   0.000000   3.528560   # O_1
 339 1 6   0.000000   3.179664   0.000000   3.179573   # C_2
 340 1 10   0.000000   3.528677   0.000000   1.972577   # O_1
 341 2 5   0.000000   8.451327   0.019694   5.252759   # H_
 342 2 7   0.000000   8.245806  19.450312   3.622246   # C_3
 343 2 5   0.000000   7.567256  19.299369   2.775020   # H_
 344 2 7   0.000000   8.289516  18.184510   4.494475   # C_3
 345 2 7   0.000000   9.681454  19.619634   3.084652   # C_3
 346 2 7   0.000000  10.459480  18.397179   3.557185   # C_3
 347 2 5   0.000000  11.520211  18.614510   3.711770   # H_
 348 2 5   0.000000  10.382447  17.594060   2.814447   # H_
 349 2 7   0.000000   9.758151  17.991110   4.839006   # C_3
 350 2 5   0.000000   7.947654  17.328564   3.898469   # H_
 351 2 5   0.000000   7.665870  18.222851   5.391289   # H_
 352 2 5   0.000000  10.051012  18.652604   5.662088   # H_
 353 2 5   0.000000   9.983943  16.960881   5.128515   # H_
 354 2 5   0.000000  10.153588  20.532194   3.468847   # H_
 355 2 5   0.000000   9.692271  19.687723   1.991397   # H_
 356 2 7   0.000000   1.909183   0.068404   7.215158   # C_3
 357 2 5   0.000000   1.879975   0.062781   5.093574   # H_
 358 2 7   0.000000   0.382047   0.095391   7.093878   # C_3
 359 2 5   0.000000   0.058795   0.883593   6.398641   # H_
 360 2 7   0.000000  20.593052   0.423892   8.494979   # C_3
 361 2 5   0.000000  20.676747  19.849182   6.723303   # H_
 362 2 7   0.000000   0.994724   1.266753   9.126920   # C_3
 363 2 5   0.000000  20.452088  20.203030   9.071536   # H_
 364 2 5   0.000000  19.634312   0.951738   8.476286   # H_
 365 2 7   0.000000   2.158323   1.264957   8.137964   # C_3
 366 2 5   0.000000   1.298295   0.829636  10.084809   # H_
 367 2 5   0.000000   0.657773   2.289047   9.327190   # H_
 368 2 5   0.000000   3.113015   1.208326   8.667499   # H_
 369 2 5   0.000000   2.161564   2.203633   7.568905   # H_
 370 2 5   0.000000   2.222569  19.827794   7.686509   # H_
 371 1 6   0.000000   7.170619  10.350200  17.520819   # C_2
 372 1 10   0.000000   6.821605  10.350200  18.727815   # O_1
 373 1 10   0.000000   8.377623  10.350200  17.171832   # O_1
 374 1 8   0.000000   6.106631  10.350200  16.456806   # C_R
 375 1 8   0.000000   6.533645  10.350200  15.162811   # C_R
 376 2 9   0.000000   7.883599  10.301644  14.729799   # N_3
 377 1 5   0.000000   5.769669  10.350200  13.051803   # H_
 378 1 8   0.000000   5.537657  10.350200  14.167800   # C_R
 379 1 8   0.000000   4.243652  10.350200  14.593785   # C_R
 380 1 8   0.000000   3.817637  10.350200  15.887781   # C_R
 381 1 8   0.000000   4.812626  10.350200  16.883792   # C_R
 382 1 5   0.000000   4.580613  10.350200  17.999789   # H_
 383 2 9   0.000000   2.495736  10.592164  16.265059   # N_3
 384 1 10   0.000000   1.972660  10.350200  13.878760   # O_1
 385 1 6   0.000000   3.179664  10.350200  13.529773   # C_2
 386 1 10   0.000000   3.528677  10.350200  12.322777   # O_1
 387 2 5   0.000000   8.451327  10.369894  15.602959   # H_
 388 2 7   0.000000   8.245806   9.100112  13.972446   # C_3
 389 2 5   0.000000   7.567256   8.949169  13.125220   # H_
 390 2 7   0.000000   8.289516   7.834310  14.844675   # C_3
 391 2 7   0.000000   9.681454   9.269434  13.434852   # C_3
 392 2 7   0.000000  10.459480   8.046979  13.907385   # C_3
 393 2 5   0.000000  11.520211   8.264310  14.061970   # H_
 394 2 5   0.000000  10.382447   7.243860  13.164647   # H_
 395 2 7   0.000000   9.758151   7.640910  15.189206   # C_3
 396 2 5   0.000000   7.947654   6.978364  14.248669   # H_
 397 2 5   0.000000   7.665870   7.872651  15.741489   # H_
 398 2 5   0.000000  10.051012   8.302404  16.012288   # H_
 399 2 5   0.000000   9.983943   6.610681  15.478715   # H_
 400 2 5   0.000000  10.153588  10.181994  13.819047   # H_
 401 2 5   0.000000   9.692271   9.337523  12.341597   # H_
 402 2 7   0.000000   1.909183  10.418604  17.565358   # C_3
 403 2 5   0.000000   1.879975  10.412981  15.443774   # H_
 404 2 7   0.000000   0.382047  10.445591  17.444078   # C_3
 405 2 5   0.000000   0.058795  11.233793  16.748841   # H_
 406 2 7   0.000000  20.593052  10.774092  18.845179   # C_3
 407 2 5   0.000000  20.676747   9.498982  17.073503   # H_
 408 2 7   0.000000   0.994724  11.616953  19.477120   # C_3
 409 2 5   0.000000  20.452088   9.852830  19.421736   # H_
 410 2 5   0.000000  19.634312  11.301938  18.826486   # H_
 411 2 7   0.000000   2.158323  11.615157  18.488164   # C_3
 412 2 5   0.000000   1.298295  11.179836  20.435009   # H_
 413 2 5   0.000000   0.657773  12.639247  19.677390   # H_
 414 2 5   0.000000   3.113015  11.558526  19.017699   # H_
 415 2 5   0.000000   2.161564  12.553833  17.919105   # H_
 416 2 5   0.000000   2.222569   9.477594  18.036709   # H_
 417 1 6   0.000000  17.520819   3.179581   0.000000   # C_2
 418 1 10   0.000000  18.727815   3.528595  20.700400   # O_1
 419 1 10   0.000000  17.171832   1.972577   0.000000   # O_1
 420 1 8   0.000000  16.456806   4.243569  20.700400   # C_R
 421 1 8   0.000000  15.162811   3.816555   0.000000   # C_R
 422 2 9   0.000000  14.729799   2.466601   0.048556   # N_3
 423 1 5   0.000000  13.051803   4.580531   0.000000   # H_
 424 1 8   0.000000  14.167800   4.812543   0.000000   # C_R
 425 1 8   0.000000  14.593785   6.106548  20.700400   # C_R
 426 1 8   0.000000  15.887781   6.532563  20.700400   # C_R
 427 1 8   0.000000  16.883792   5.537574  20.700400   # C_R
 428 1 5   0.000000  17.999789   5.769587  20.700400   # H_
 429 2 9   0.000000  16.265059   7.854464  20.458436   # N_3
 430 1 10   0.000000  13.878760   8.377540  20.700400   # O_1
 431 1 6   0.000000  13.529773   7.170536  20.700400   # C_2
 432 1 10   0.000000  12.322777   6.821523   0.000000   # O_1
 433 2 5   0.000000  15.602959   1.898873  20.680706   # H_
 434 2 7   0.000000  13.972446   2.104394   1.250088   # C_3
 435 2 5   0.000000  13.125220   2.782944   1.401031   # H_
 436 2 7   0.000000  14.844675   2.060684   2.515890   # C_3
 437 2 7   0.000000  13.434852   0.668746   1.080766   # C_3
 438 2 7   0.000000  13.907385  20.591120   2.303221   # C_3
 439 2 5   0.000000  14.061970  19.530389   2.085890   # H_
 440 2 5   0.000000  13.164647  20.668153   3.106340   # H_
 441 2 7   0.000000  15.189206   0.592049   2.709290   # C_3
 442 2 5   0.000000  14.248669   2.402546   3.371836   # H_
 443 2 5   0.000000  15.741489   2.684330   2.477549   # H_
 444 2 5   0.000000  16.012288   0.299188   2.047796   # H_
 445 2 5   0.000000  15.478715   0.366257   3.739519   # H_
 446 2 5   0.000000  13.819047   0.196612   0.168206   # H_
 447 2 5   0.000000  12.341597   0.657929   1.012677   # H_
 448 2 7   0.000000  17.565358   8.441017  20.631996   # C_3
 449 2 5   0.000000  15.443774   8.470225  20.637619   # H_
 450 2 7   0.000000  17.444078   9.968153  20.605009   # C_3
 451 2 5   0.000000  16.748841  10.291405  19.816807   # H_
 452 2 7   0.000000  18.845179  10.457548  20.276508   # C_3
 453 2 5   0.000000  17.073503  10.373853   0.851218   # H_
 454 2 7   0.000000  19.477120   9.355476  19.433647   # C_3
 455 2 5   0.000000  19.421736  10.598512   0.497370   # H_
 456 2 5   0.000000  18.826486  11.416288  19.748662   # H_
 457 2 7   0.000000  18.488164   8.191877  19.435443   # C_3
 458 2 5   0.000000  20.435009   9.051905  19.870764   # H_