 (written by mofun)

1352 atoms
0 bonds
0 angles
0 dihedrals
0 impropers

5 atom types
   0.000000  26.896000 xlo xhi
   0.000000  26.896000 ylo yhi
   0.000000  26.896000 zlo zhi

Masses

 1 91.2240   # Zr3+4
 2 15.9994   # O_3
 3 12.0107   # C_3
 4 1.0079   # H_
 5 14.0067   # N_3

Pair Coeffs

 1   0.069000   2.783168 # Zr3+4
 2   0.060000   3.118146 # O_3
 3   0.105000   3.430851 # C_3
 4   0.044000   2.571134 # H_
 5   0.069000   3.260689 # N_3

Atoms

 1 1 1   3.189830   2.475508   0.000000   0.000000   # Zr3+4
 2 1 1   3.189280  24.420492   0.000000   0.000000   # Zr3+4
 3 1 1   3.189570   0.000000   2.475508   0.000000   # Zr3+4
 4 1 1   3.189030   0.000000  24.420492   0.000000   # Zr3+4
 5 1 1   3.191280   0.000000   0.000000   2.475508   # Zr3+4
 6 1 1   3.190580   0.000000   0.000000  24.420492   # Zr3+4
 7 1 1   3.214780   2.475508  13.448000  13.448000   # Zr3+4
 8 1 1   3.213750  24.420492  13.448000  13.448000   # Zr3+4
 9 1 1   3.202750   0.000000  15.923508  13.448000   # Zr3+4
 10 1 1   3.202720   0.000000  10.972492  13.448000   # Zr3+4
 11 1 1   3.202770   0.000000  13.448000  15.923508   # Zr3+4
 12 1 1   3.202730   0.000000  13.448000  10.972492   # Zr3+4
 13 1 1   3.202980  15.923508   0.000000  13.448000   # Zr3+4
 14 1 1   3.202950  10.972492   0.000000  13.448000   # Zr3+4
 15 1 1   3.214770  13.448000   2.475508  13.448000   # Zr3+4
 16 1 1   3.213760  13.448000  24.420492  13.448000   # Zr3+4
 17 1 1   3.202970  13.448000   0.000000  15.923508   # Zr3+4
 18 1 1   3.202940  13.448000   0.000000  10.972492   # Zr3+4
 19 1 1   3.201220  15.923508  13.448000   0.000000   # Zr3+4
 20 1 1   3.201180  10.972492  13.448000   0.000000   # Zr3+4
 21 1 1   3.201240  13.448000  15.923508   0.000000   # Zr3+4
 22 1 1   3.201200  13.448000  10.972492   0.000000   # Zr3+4
 23 1 1   3.214750  13.448000  13.448000   2.475508   # Zr3+4
 24 1 1   3.213580  13.448000  13.448000  24.420492   # Zr3+4
 25 1 2  -1.322250   1.221078   1.221078   1.221078   # O_3
 26 1 2  -1.158220  25.674922  25.674922   1.221078   # O_3
 27 1 2  -1.146340  25.674922   1.221078  25.674922   # O_3
 28 1 2  -1.147710   1.221078  25.674922  25.674922   # O_3
 29 1 2  -1.225910   1.221078   1.221078  25.674922   # O_3
 30 1 2  -1.067740  25.674922  25.674922  25.674922   # O_3
 31 1 2  -1.237820   1.221078  25.674922   1.221078   # O_3
 32 1 2  -1.236260  25.674922   1.221078   1.221078   # O_3
 33 1 2  -1.270850   1.221078  14.669078  14.669078   # O_3
 34 1 2  -1.186690  25.674922  12.226922  14.669078   # O_3
 35 1 2  -1.186670  25.674922  14.669078  12.226922   # O_3
 36 1 2  -1.270790   1.221078  12.226922  12.226922   # O_3
 37 1 2  -1.270540   1.221078  14.669078  12.226922   # O_3
 38 1 2  -1.185900  25.674922  12.226922  12.226922   # O_3
 39 1 2  -1.270550   1.221078  12.226922  14.669078   # O_3
 40 1 2  -1.186410  25.674922  14.669078  14.669078   # O_3
 41 1 2  -1.270470  14.669078   1.221078  14.669078   # O_3
 42 1 2  -1.187830  12.226922  25.674922  14.669078   # O_3
 43 1 2  -1.270400  12.226922   1.221078  12.226922   # O_3
 44 1 2  -1.187810  14.669078  25.674922  12.226922   # O_3
 45 1 2  -1.269970  14.669078   1.221078  12.226922   # O_3
 46 1 2  -1.187140  12.226922  25.674922  12.226922   # O_3
 47 1 2  -1.187650  14.669078  25.674922  14.669078   # O_3
 48 1 2  -1.269990  12.226922   1.221078  14.669078   # O_3
 49 1 2  -1.274270  14.669078  14.669078   1.221078   # O_3
 50 1 2  -1.274210  12.226922  12.226922   1.221078   # O_3
 51 1 2  -1.179580  12.226922  14.669078  25.674922   # O_3
 52 1 2  -1.179580  14.669078  12.226922  25.674922   # O_3
 53 1 2  -1.179310  14.669078  14.669078  25.674922   # O_3
 54 1 2  -1.178790  12.226922  12.226922  25.674922   # O_3
 55 1 2  -1.273650  14.669078  12.226922   1.221078   # O_3
 56 1 2  -1.273660  12.226922  14.669078   1.221078   # O_3
 57 1 2  -0.675565   3.566410   0.000000   1.933822   # O_3
 58 1 3   0.482607   3.152211   0.000000   3.152211   # C_3
 59 1 2  -0.675200   1.933822   0.000000   3.566410   # O_3
 60 1 3  -0.153131   4.209224   0.000000   4.209224   # C_3
 61 1 3   0.055397   5.535197   0.000000   3.891851   # C_3
 62 1 3  -0.009744   3.891851   0.000000   5.535197   # C_3
 63 1 3  -0.123670   6.508832   0.000000   4.827832   # C_3
 64 1 4  -0.000312   5.779950   0.000000   2.996214   # H_
 65 1 3   0.009809   4.827832   0.000000   6.508832   # C_3
 66 1 4   0.022816   2.996214   0.000000   5.779950   # H_
 67 1 3   0.000958   6.204907   0.000000   6.204907   # C_3
 68 1 3   0.022575   7.243093   0.000000   7.243093   # C_3
 69 1 4   0.063525   7.399090   0.000000   4.558872   # H_
 70 1 3  -0.022183   8.620168   0.000000   6.939168   # C_3
 71 1 5  -0.213255   4.287491   0.149542   7.888597   # N_3
 72 1 3  -0.137053   6.939168   0.000000   8.620168   # C_3
 73 1 3   0.013297   9.556149   0.000000   7.912803   # C_3
 74 1 5  -0.114903   9.078476   0.728075   5.654615   # N_3
 75 1 3   0.064254   7.912803   0.000000   9.556149   # C_3
 76 1 4   0.062828   6.048910   0.000000   8.889128   # H_
 77 1 3  -0.162621   9.238776   0.000000   9.238776   # C_3
 78 1 3   0.480594  10.295789   0.000000  10.295789   # C_3
 79 1 4   0.015726  10.451786   0.000000   7.668050   # H_
 80 1 4  -0.003000   7.668050   0.000000  10.451786   # H_
 81 1 2  -0.668753  11.514178   0.000000   9.881590   # O_3
 82 1 2  -0.668613   9.881590   0.000000  11.514178   # O_3
 83 1 3  -0.306714  10.145978   0.025551   4.900451   # C_3
 84 1 3  -0.009601   3.566948   1.438667   8.045400   # C_3
 85 1 3  -0.001040  10.448827   0.788860   3.568292   # C_3
 86 1 3  -0.090854   4.487329   2.652752   7.862777   # C_3
 87 1 4   0.161623   3.612133  26.255068   8.045669   # H_
 88 1 4   0.071348   9.394235   1.694448   5.898293   # H_
 89 1 3  -0.029678   3.740158   4.031441   7.782896   # C_3
 90 1 4   0.011127   2.674538   1.501066   7.372194   # H_
 91 1 4   0.169880   9.830488  25.877986   4.682594   # H_
 92 1 4   0.027455   2.792881   4.018531   8.376490   # H_
 93 1 3  -0.154879   3.421709   4.374634   6.303884   # C_3
 94 1 4   0.028137   4.417399   4.837784   8.156212   # H_
 95 1 3  -0.069752  11.098365   2.119943   3.960974   # C_3
 96 1 4   0.038582  10.390732   2.829459   4.410137   # H_
 97 1 3  -0.133631  11.782331   2.857431   2.831073   # C_3
 98 1 4   0.020001  11.939134   1.910154   4.685821   # H_
 99 1 4   0.186641  11.091372  26.894924   5.518790   # H_
 100 1 4   0.006287   3.182335   1.504024   9.083855   # H_
 101 1 4  -0.002599   9.562066   0.921995   2.946995   # H_
 102 1 4  -0.033384  11.214018   0.257933   2.984918   # H_
 103 1 4   0.056728   5.162418   2.527417   6.997532   # H_
 104 1 4   0.045135   5.129067   2.642532   8.772399   # H_
 105 1 4   0.067166   2.621553   3.715682   5.915506   # H_
 106 1 4   0.058539   4.336173   4.221596   5.674518   # H_
 107 1 4   0.016130  11.283948   2.699552   1.863624   # H_
 108 1 4   0.022708  12.857364   2.544093   2.751461   # H_
 109 1 4   0.061435   3.112136   5.440792   6.236376   # H_
 110 1 4   0.041955  11.742256   3.922244   3.109984   # H_
 111 1 2  -0.672018  23.329590   0.000000   1.933822   # O_3
 112 1 3   0.479341  23.743789   0.000000   3.152211   # C_3
 113 1 2  -0.614998  24.962178   0.000000   3.566410   # O_3
 114 1 3  -0.158489  22.686776   0.000000   4.209224   # C_3
 115 1 3   0.061398  21.360803   0.000000   3.891851   # C_3
 116 1 3   0.026566  23.004149   0.000000   5.535197   # C_3
 117 1 3  -0.131361  20.387168   0.000000   4.827832   # C_3
 118 1 4  -0.004841  21.116050   0.000000   2.996214   # H_
 119 1 3  -0.065565  22.068168   0.000000   6.508832   # C_3
 120 1 4   0.027835  23.899786   0.000000   5.779950   # H_
 121 1 3   0.017819  20.691093   0.000000   6.204907   # C_3
 122 1 3   0.011279  19.652907   0.000000   7.243093   # C_3
 123 1 4   0.048315  19.496910   0.000000   4.558872   # H_
 124 1 3  -0.051019  18.275832   0.000000   6.939168   # C_3
 125 1 5  -0.024182  22.608509  26.746189   7.888597   # N_3
 126 1 3  -0.129225  19.956832   0.000000   8.620168   # C_3
 127 1 3   0.018353  17.339851   0.000000   7.912803   # C_3
 128 1 5  -0.114807  17.817524  26.167925   5.654615   # N_3
 129 1 3   0.060644  18.983197   0.000000   9.556149   # C_3
 130 1 4   0.052942  20.847090   0.000000   8.889128   # H_
 131 1 3  -0.163369  17.657224   0.000000   9.238776   # C_3
 132 1 3   0.480630  16.600211   0.000000  10.295789   # C_3
 133 1 4   0.018981  16.444214   0.000000   7.668050   # H_
 134 1 4   0.003281  19.227950   0.000000  10.451786   # H_
 135 1 2  -0.667880  15.381822   0.000000   9.881590   # O_3
 136 1 2  -0.667804  17.014410   0.000000  11.514178   # O_3
 137 1 3   0.274864  16.750022  26.870449   4.900451   # C_3
 138 1 3  -0.002612  23.329321  25.457333   8.045400   # C_3
 139 1 3  -0.177958  16.447173  26.107140   3.568292   # C_3
 140 1 3  -0.090752  22.408671  24.242979   7.863046   # C_3
 141 1 4   0.008308  23.283867   0.640932   8.045669   # H_
 142 1 4   0.098625  17.502034  25.201552   5.898293   # H_
 143 1 3  -0.021170  23.155842  22.864290   7.782896   # C_3
 144 1 4   0.075429  24.221462  25.394934   7.372194   # H_
 145 1 4  -0.090741  17.065512   1.018014   4.682594   # H_
 146 1 4   0.042189  24.103388  22.877200   8.376221   # H_
 147 1 3  -0.165490  23.474291  22.521366   6.303616   # C_3
 148 1 4   0.033906  22.478601  22.058216   8.155943   # H_
 149 1 3   0.007359  15.797366  24.776326   3.960974   # C_3
 150 1 4   0.021571  16.504730  24.066810   4.410137   # H_
 151 1 3  -0.169074  15.113400  24.038838   2.830804   # C_3
 152 1 4   0.040943  14.956328  24.986384   4.685552   # H_
 153 1 4  -0.109574  15.804628   0.001076   5.518790   # H_
 154 1 4   0.042197  23.713665  25.391976   9.083855   # H_
 155 1 4   0.083470  17.333934  25.973736   2.946995   # H_
 156 1 4   0.092145  15.682251  26.638067   2.984649   # H_
 157 1 4   0.082628  21.733582  24.368314   6.997801   # H_
 158 1 4   0.065891  21.767202  24.253199   8.772399   # H_
 159 1 4   0.107690  24.274447  23.180587   5.915237   # H_
 160 1 4   0.073158  22.559827  22.674673   5.674518   # H_
 161 1 4   0.041547  15.611514  24.196986   1.863355   # H_
 162 1 4   0.054099  14.038098  24.352176   2.751461   # H_
 163 1 4   0.083144  23.783864  21.455208   6.235838   # H_
 164 1 4   0.051687  15.153744  22.974025   3.109447   # H_
 165 1 2  -0.597613  23.329590   0.000000  24.962178   # O_3
 166 1 3   0.455511  23.743789   0.000000  23.743789   # C_3
 167 1 2  -0.605019  24.962178   0.000000  23.329590   # O_3
 168 1 3  -0.095692  22.686776   0.000000  22.686776   # C_3
 169 1 3   0.016705  21.360803   0.000000  23.004149   # C_3
 170 1 3  -0.044101  23.004149   0.000000  21.360803   # C_3
 171 1 3  -0.084130  20.387168   0.000000  22.068168   # C_3
 172 1 4   0.043789  21.116050   0.000000  23.899786   # H_
 173 1 3   0.037197  22.068168   0.000000  20.387168   # C_3
 174 1 4   0.058582  23.899786   0.000000  21.116050   # H_
 175 1 3  -0.017307  20.691093   0.000000  20.691093   # C_3
 176 1 3   0.033108  19.652907   0.000000  19.652907   # C_3
 177 1 4   0.058222  19.496910   0.000000  22.337128   # H_
 178 1 3  -0.024399  18.275832   0.000000  19.956832   # C_3
 179 1 5  -0.214881  22.608509   0.149273  19.007403   # N_3
 180 1 3  -0.143406  19.956832   0.000000  18.275832   # C_3
 181 1 3   0.016150  17.339851   0.000000  18.983197   # C_3
 182 1 5  -0.114825  17.817524   0.728075  21.241385   # N_3
 183 1 3   0.069354  18.983197   0.000000  17.339851   # C_3
 184 1 4   0.066399  20.847090   0.000000  18.006872   # H_
 185 1 3  -0.165326  17.657224   0.000000  17.657224   # C_3
 186 1 3   0.481517  16.600211   0.000000  16.600211   # C_3
 187 1 4   0.015267  16.444214   0.000000  19.227950   # H_
 188 1 4  -0.004351  19.227950   0.000000  16.444214   # H_
 189 1 2  -0.668797  15.381822   0.000000  17.014410   # O_3
 190 1 2  -0.668696  17.014410   0.000000  15.381822   # O_3
 191 1 3  -0.294166  16.750291   0.025282  21.995549   # C_3
 192 1 3  -0.011944  23.329590   1.438129  18.850331   # C_3
 193 1 3  -0.016780  16.447173   0.788591  23.327977   # C_3
 194 1 3  -0.089321  22.409747   2.652752  19.032685   # C_3
 195 1 4   0.175093  23.283867  26.254530  18.850600   # H_
 196 1 4   0.071414  17.501496   1.694448  20.997707   # H_
 197 1 3  -0.025348  23.157187   4.031172  19.114987   # C_3
 198 1 4   0.032904  24.222000   1.500259  19.523268   # H_
 199 1 4   0.169460  17.066050  25.877986  22.213406   # H_
 200 1 4   0.041341  24.105271   4.018531  18.522468   # H_
 201 1 3  -0.162986  23.474560   4.372483  20.595074   # C_3
 202 1 4   0.032540  22.480484   4.838052  18.741940   # H_
 203 1 3  -0.049998  15.796021   2.118598  22.935295   # C_3
 204 1 4   0.034486  16.502579   2.828114  22.485325   # H_
 205 1 3  -0.156039  15.111518   2.855817  24.065465   # C_3
 206 1 4   0.017154  14.954983   1.907733  22.211255   # H_
 207 1 4   0.182300  15.804896  26.894386  21.377210   # H_
 208 1 4   0.014650  23.713934   1.503217  17.811876   # H_
 209 1 4   0.024317  17.334203   0.922533  23.948736   # H_
 210 1 4  -0.007495  15.682789   0.256857  23.911620   # H_
 211 1 4   0.057364  21.733044   2.527148  19.896585   # H_
 212 1 4   0.045387  21.769353   2.644146  18.121987   # H_
 213 1 4   0.099708  24.274447   3.712993  20.982645   # H_
 214 1 4   0.069446  22.559289   4.217831  21.222827   # H_
 215 1 4   0.073059  15.608287   2.696324  25.033452   # H_
 216 1 4   0.052032  14.035947   2.543555  24.143194   # H_
 217 1 4   0.084439  23.783595   5.438640  20.665273   # H_
 218 1 4   0.062801  15.153475   3.921168  23.787898   # H_
 219 1 2  -0.606407   3.566410   0.000000  24.962178   # O_3
 220 1 3   0.478437   3.152211   0.000000  23.743789   # C_3
 221 1 2  -0.671433   1.933822   0.000000  23.329590   # O_3
 222 1 3  -0.155548   4.209224   0.000000  22.686776   # C_3
 223 1 3   0.056623   5.535197   0.000000  23.004149   # C_3
 224 1 3   0.030819   3.891851   0.000000  21.360803   # C_3
 225 1 3  -0.122746   6.508832   0.000000  22.068168   # C_3
 226 1 4   0.025615   5.779950   0.000000  23.899786   # H_
 227 1 3  -0.072009   4.827832   0.000000  20.387168   # C_3
 228 1 4   0.004420   2.996214   0.000000  21.116050   # H_
 229 1 3   0.018045   6.204907   0.000000  20.691093   # C_3
 230 1 3   0.010850   7.243093   0.000000  19.652907   # C_3
 231 1 4   0.052912   7.399090   0.000000  22.337128   # H_
 232 1 3  -0.049760   8.620168   0.000000  19.956832   # C_3
 233 1 5  -0.022532   4.287491  26.746727  19.007403   # N_3
 234 1 3  -0.128936   6.939168   0.000000  18.275832   # C_3
 235 1 3   0.017460   9.556149   0.000000  18.983197   # C_3
 236 1 5  -0.114806   9.078476  26.167925  21.241385   # N_3
 237 1 3   0.059918   7.912803   0.000000  17.339851   # C_3
 238 1 4   0.051916   6.048910   0.000000  18.006872   # H_
 239 1 3  -0.162905   9.238776   0.000000  17.657224   # C_3
 240 1 3   0.480380  10.295789   0.000000  16.600211   # C_3
 241 1 4   0.019440  10.451786   0.000000  19.227950   # H_
 242 1 4   0.003217   7.668050   0.000000  16.444214   # H_
 243 1 2  -0.667735  11.514178   0.000000  17.014410   # O_3
 244 1 2  -0.667907   9.881590   0.000000  15.381822   # O_3
 245 1 3   0.277435  10.145709  26.870718  21.995549   # C_3
 246 1 3   0.000063   3.566410  25.457602  18.850600   # C_3
 247 1 3  -0.190464  10.448827  26.107409  23.327708   # C_3
 248 1 3  -0.093302   4.486522  24.242979  19.032685   # C_3
 249 1 4  -0.007912   3.612133   0.641470  18.850600   # H_
 250 1 4   0.098796   9.394235  25.201552  20.997707   # H_
 251 1 3  -0.024125   3.739082  22.864828  19.114718   # C_3
 252 1 4   0.053983   2.674000  25.395472  19.523268   # H_
 253 1 4  -0.087133   9.830219   1.018014  22.213406   # H_
 254 1 4   0.027820   2.791267  22.877469  18.521930   # H_
 255 1 3  -0.160811   3.421440  22.522979  20.594536   # C_3
 256 1 4   0.029242   4.415785  22.057948  18.741402   # H_
 257 1 3   0.025817  11.099710  24.777133  22.935295   # C_3
 258 1 4   0.017930  10.393152  24.067617  22.485325   # H_
 259 1 3  -0.190748  11.784213  24.039914  24.065465   # C_3
 260 1 4   0.037870  11.941017  24.987998  22.211255   # H_
 261 1 4  -0.108622  11.091104   0.001345  21.377210   # H_
 262 1 4   0.034016   3.182066  25.392783  17.811876   # H_
 263 1 4   0.108788   9.561797  25.973467  23.948736   # H_
 264 1 4   0.115588  11.213211  26.638874  23.911620   # H_
 265 1 4   0.083576   5.162687  24.368583  19.897123   # H_
 266 1 4   0.065524   5.126916  24.252123  18.122525   # H_
 267 1 4   0.081425   2.621553  23.182469  20.982376   # H_
 268 1 4   0.073625   4.336711  22.677631  21.222558   # H_
 269 1 4   0.097509  11.287175  24.199138  25.033183   # H_
 270 1 4   0.082513  12.859516  24.352176  24.143463   # H_
 271 1 4   0.065332   3.112405  21.456822  20.664466   # H_
 272 1 4   0.072260  11.742525  22.974832  23.787629   # H_
 273 1 2  -0.680967   1.933822   3.566410   0.000000   # O_3
 274 1 3   0.481320   3.152211   3.152211   0.000000   # C_3
 275 1 2  -0.679861   3.566410   1.933822   0.000000   # O_3
 276 1 3  -0.154377   4.209224   4.209224   0.000000   # C_3
 277 1 3   0.043273   3.891851   5.535197   0.000000   # C_3
 278 1 3  -0.002316   5.535197   3.891851   0.000000   # C_3
 279 1 3  -0.110058   4.827832   6.508832   0.000000   # C_3
 280 1 4  -0.002032   2.996214   5.779950   0.000000   # H_
 281 1 3  -0.002401   6.508832   4.827832   0.000000   # C_3
 282 1 4   0.022733   5.779950   2.996214   0.000000   # H_
 283 1 3  -0.016279   6.204907   6.204907   0.000000   # C_3
 284 1 3   0.047712   7.243093   7.243093   0.000000   # C_3
 285 1 4   0.032515   4.558872   7.399090   0.000000   # H_
 286 1 3  -0.104699   6.939168   8.620168   0.000000   # C_3
 287 1 5  -0.144595   7.820281   4.350428   0.693648   # N_3
 288 1 3  -0.165482   8.620168   6.939168   0.000000   # C_3
 289 1 3   0.055870   7.912803   9.556149   0.000000   # C_3
 290 1 5   0.002126   5.548107   9.182294  26.729245   # N_3
 291 1 3   0.088527   9.556149   7.912803   0.000000   # C_3
 292 1 4   0.068989   8.889128   6.048910   0.000000   # H_
 293 1 3  -0.193819   9.238776   9.238776   0.000000   # C_3
 294 1 3   0.488720  10.295789  10.295789   0.000000   # C_3
 295 1 4  -0.001201   7.668050  10.451786   0.000000   # H_
 296 1 4  -0.012662  10.451786   7.668050   0.000000   # H_
 297 1 2  -0.677286   9.881590  11.514178   0.000000   # O_3
 298 1 2  -0.676869  11.514178   9.881590   0.000000   # O_3
 299 1 3  -0.001202   5.328636   9.537860  25.316667   # C_3
 300 1 3  -0.020221   7.729104   3.950484   2.133391   # C_3
 301 1 3  -0.093245   3.824880   9.393966  25.042866   # C_3
 302 1 3  -0.089649   8.603761   4.850156   3.039248   # C_3
 303 1 4   0.026030   8.238514   3.557803   0.141204   # H_
 304 1 4  -0.022983   5.492163  10.073897   0.387302   # H_
 305 1 3  -0.027023   8.250886   4.878396   4.559948   # C_3
 306 1 4   0.039348   6.683118   4.060758   2.509397   # H_
 307 1 4   0.066427   5.955850   8.866266  24.668204   # H_
 308 1 4   0.030263   7.437013   4.177218   4.786950   # H_
 309 1 3  -0.158275   7.826467   6.259775   4.967422   # C_3
 310 1 4   0.026537   9.132268   4.633374   5.204107   # H_
 311 1 3  -0.028078   3.665656   9.184446  23.528083   # C_3
 312 1 4   0.046629   4.058875   8.147605  23.331742   # H_
 313 1 3  -0.149733   4.506156  10.181481  22.660149   # C_3
 314 1 4   0.023580   2.567223   9.180681  23.270150   # H_
 315 1 4   0.058856   5.658649  10.587610  25.132967   # H_
 316 1 4   0.016670   8.064497   2.891589   2.278898   # H_
 317 1 4   0.065620   3.317622  10.296058  25.433664   # H_
 318 1 4   0.086561   3.421709   8.512853  25.551469   # H_
 319 1 4   0.052410   8.648140   5.879197   2.618057   # H_
 320 1 4   0.037969   9.630651   4.455591   2.982766   # H_
 321 1 4   0.053587   7.570686   6.251437   6.045414   # H_
 322 1 4   0.059055   6.936478   6.543797   4.382165   # H_
 323 1 4   0.057439   4.241499  10.078200  21.579468   # H_
 324 1 4   0.063386   5.617768   9.962816  22.696190   # H_
 325 1 4   0.055556   8.655940   6.989732   4.823798   # H_
 326 1 4   0.056090   4.286416  11.241990  22.915123   # H_
 327 1 2  -0.678425   1.933822  23.329590   0.000000   # O_3
 328 1 3   0.483312   3.152211  23.743789   0.000000   # C_3
 329 1 2  -0.621261   3.566410  24.962178   0.000000   # O_3
 330 1 3  -0.172741   4.209224  22.686776   0.000000   # C_3
 331 1 3   0.082862   3.891851  21.360803   0.000000   # C_3
 332 1 3   0.036489   5.535197  23.004149   0.000000   # C_3
 333 1 3  -0.161792   4.827832  20.387168   0.000000   # C_3
 334 1 4  -0.015804   2.996214  21.116050   0.000000   # H_
 335 1 3  -0.082396   6.508832  22.068168   0.000000   # C_3
 336 1 4   0.021791   5.779950  23.899786   0.000000   # H_
 337 1 3   0.045858   6.204907  20.691093   0.000000   # C_3
 338 1 3  -0.024837   7.243093  19.652907   0.000000   # C_3
 339 1 4   0.071985   4.558872  19.496910   0.000000   # H_
 340 1 3   0.012640   6.939168  18.275832   0.000000   # C_3
 341 1 5  -0.076398   7.821088  22.546379  26.204504   # N_3
 342 1 3  -0.103015   8.620168  19.956832   0.000000   # C_3
 343 1 3  -0.025827   7.912803  17.339851   0.000000   # C_3
 344 1 5  -0.225213   5.546493  17.711016   0.162183   # N_3
 345 1 3   0.029258   9.556149  18.983197   0.000000   # C_3
 346 1 4   0.036026   8.889128  20.847090   0.000000   # H_
 347 1 3  -0.141743   9.238776  17.657224   0.000000   # C_3
 348 1 3   0.470215  10.295789  16.600211   0.000000   # C_3
 349 1 4   0.023371   7.668050  16.444214   0.000000   # H_
 350 1 4   0.008850  10.451786  19.227950   0.000000   # H_
 351 1 2  -0.673240   9.881590  15.381822   0.000000   # O_3
 352 1 2  -0.672379  11.514178  17.014410   0.000000   # O_3
 353 1 3  -0.018763   5.322449  17.343886   1.570457   # C_3
 354 1 3  -0.004044   7.730179  22.950626  24.766106   # C_3
 355 1 3  -0.086042   3.818694  17.493158   1.841300   # C_3
 356 1 3  -0.091302   8.602148  22.052299  23.856752   # C_3
 357 1 4   0.134549   8.239052  23.337390  26.759368   # H_
 358 1 4   0.179332   5.491894  16.822372  26.498208   # H_
 359 1 3  -0.023163   8.246852  22.029169  22.337128   # C_3
 360 1 4   0.073353   6.683656  22.843849  24.390100   # H_
 361 1 4   0.041623   5.947512  18.013327   2.222954   # H_
 362 1 4   0.041492   7.420875  22.717975  22.116043   # H_
 363 1 3  -0.162440   7.846908  20.642680  21.921047   # C_3
 364 1 4   0.031703   9.122854  22.293556  21.692969   # H_
 365 1 3  -0.037151   3.661084  17.720968   3.352586   # C_3
 366 1 4   0.038114   4.060220  18.758077   3.533865   # H_
 367 1 3  -0.145020   4.498625  16.730119   4.232624   # C_3
 368 1 4   0.015627   2.562651  17.736029   3.610788   # H_
 369 1 4   0.010648   5.651925  16.293597   1.751736   # H_
 370 1 4   0.053953   8.067993  24.009252  24.623826   # H_
 371 1 4  -0.002335   3.309015  16.588646   1.457494   # H_
 372 1 4   0.021689   3.415792  18.369161   1.324628   # H_
 373 1 4   0.084291   8.646526  21.022183  24.274985   # H_
 374 1 4   0.054044   9.629575  22.446057  23.913234   # H_
 375 1 4   0.057730   7.570686  20.659624  20.848434   # H_
 376 1 4   0.072110   6.972519  20.333376  22.516524   # H_
 377 1 4   0.055099   4.251720  16.869171   5.313036   # H_
 378 1 4   0.055925   5.614271  16.922963   4.177487   # H_
 379 1 4   0.063612   8.693325  19.926977  22.041541   # H_
 380 1 4   0.044733   4.253602  15.667996   4.008311   # H_
 381 1 2  -0.611544  24.962178  23.329590   0.000000   # O_3
 382 1 3   0.455734  23.743789  23.743789   0.000000   # C_3
 383 1 2  -0.610851  23.329590  24.962178   0.000000   # O_3
 384 1 3  -0.099851  22.686776  22.686776   0.000000   # C_3
 385 1 3   0.005640  23.004149  21.360803   0.000000   # C_3
 386 1 3  -0.035638  21.360803  23.004149   0.000000   # C_3
 387 1 3  -0.073693  22.068168  20.387168   0.000000   # C_3
 388 1 4   0.035576  23.899786  21.116050   0.000000   # H_
 389 1 3   0.025294  20.387168  22.068168   0.000000   # C_3
 390 1 4   0.060099  21.116050  23.899786   0.000000   # H_
 391 1 3  -0.034339  20.691093  20.691093   0.000000   # C_3
 392 1 3   0.056996  19.652907  19.652907   0.000000   # C_3
 393 1 4   0.024676  22.337128  19.496910   0.000000   # H_
 394 1 3  -0.105921  19.956832  18.275832   0.000000   # C_3
 395 1 5  -0.146979  19.075450  22.545572   0.693379   # N_3
 396 1 3  -0.171062  18.275832  19.956832   0.000000   # C_3
 397 1 3   0.057577  18.983197  17.339851   0.000000   # C_3
 398 1 5  -0.000288  21.347893  17.713437  26.728169   # N_3
 399 1 3   0.092543  17.339851  18.983197   0.000000   # C_3
 400 1 4   0.072167  18.006872  20.847090   0.000000   # H_
 401 1 3  -0.195777  17.657224  17.657224   0.000000   # C_3
 402 1 3   0.489294  16.600211  16.600211   0.000000   # C_3
 403 1 4  -0.001042  19.227950  16.444214   0.000000   # H_
 404 1 4  -0.013503  16.444214  19.227950   0.000000   # H_
 405 1 2  -0.677105  17.014410  15.381822   0.000000   # O_3
 406 1 2  -0.676823  15.381822  17.014410   0.000000   # O_3
 407 1 3  -0.000884  21.568440  17.353299  25.316667   # C_3
 408 1 3  -0.022135  19.166628  22.946322   2.132853   # C_3
 409 1 3  -0.093421  23.071389  17.505262  25.041790   # C_3
 410 1 3  -0.085769  18.292508  22.046651   3.039248   # C_3
 411 1 4   0.040362  18.657486  23.338197   0.140397   # H_
 412 1 4  -0.019557  21.405720  16.823986   0.389454   # H_
 413 1 3  -0.030374  18.645652  22.019486   4.559679   # C_3
 414 1 4   0.050098  20.212613  22.836587   2.508859   # H_
 415 1 4   0.067800  20.936115  18.019244  24.667128   # H_
 416 1 4   0.041097  19.461408  22.718782   4.785874   # H_
 417 1 3  -0.157082  19.066036  20.637301   4.968767   # C_3
 418 1 4   0.032456  17.765077  22.267736   5.203838   # H_
 419 1 3  -0.024626  23.228730  17.714512  23.527276   # C_3
 420 1 4   0.060050  22.827980  18.748933  23.331473   # H_
 421 1 3  -0.148609  22.393879  16.711561  22.660687   # C_3
 422 1 4   0.059667  24.326625  17.725809  23.268268   # H_
 423 1 4   0.060053  21.244344  16.301397  25.136733   # H_
 424 1 4   0.035446  18.830696  24.005218   2.277822   # H_
 425 1 4   0.085119  23.584564  16.606397  25.432320   # H_
 426 1 4   0.101326  23.470794  18.388526  25.548779   # H_
 427 1 4   0.051409  18.248398  21.017610   2.618595   # H_
 428 1 4   0.038252  17.265349  22.441216   2.982497   # H_
 429 1 4   0.056621  19.325314  20.647252   6.045952   # H_
 430 1 4   0.060297  19.953336  20.348976   4.381627   # H_
 431 1 4   0.073981  22.650197  16.822910  21.579199   # H_
 432 1 4   0.065793  21.279846  16.916239  22.703720   # H_
 433 1 4   0.055430  18.233874  19.909764   4.829177   # H_
 434 1 4   0.067186  22.627605  15.652396  22.910282   # H_
 435 1 2  -0.621617  24.962178   3.566410   0.000000   # O_3
 436 1 3   0.483508  23.743789   3.152211   0.000000   # C_3
 437 1 2  -0.678148  23.329590   1.933822   0.000000   # O_3
 438 1 3  -0.174798  22.686776   4.209224   0.000000   # C_3
 439 1 3   0.080323  23.004149   5.535197   0.000000   # C_3
 440 1 3   0.042925  21.360803   3.891851   0.000000   # C_3
 441 1 3  -0.157549  22.068168   6.508832   0.000000   # C_3
 442 1 4   0.007257  23.899786   5.779950   0.000000   # H_
 443 1 3  -0.091959  20.387168   4.827832   0.000000   # C_3
 444 1 4  -0.004746  21.116050   2.996214   0.000000   # H_
 445 1 3   0.047586  20.691093   6.204907   0.000000   # C_3
 446 1 3  -0.026187  19.652907   7.243093   0.000000   # C_3
 447 1 4   0.073941  22.337128   7.399090   0.000000   # H_
 448 1 3   0.013540  19.956832   8.620168   0.000000   # C_3
 449 1 5  -0.075703  19.074912   4.349621  26.204773   # N_3
 450 1 3  -0.102094  18.275832   6.939168   0.000000   # C_3
 451 1 3  -0.026753  18.983197   9.556149   0.000000   # C_3
 452 1 5  -0.224608  21.349776   9.185253   0.161914   # N_3
 453 1 3   0.028311  17.339851   7.912803   0.000000   # C_3
 454 1 4   0.034692  18.006872   6.048910   0.000000   # H_
 455 1 3  -0.141028  17.657224   9.238776   0.000000   # C_3
 456 1 3   0.469948  16.600211  10.295789   0.000000   # C_3
 457 1 4   0.024399  19.227950  10.451786   0.000000   # H_
 458 1 4   0.008651  16.444214   7.668050   0.000000   # H_
 459 1 2  -0.672854  17.014410  11.514178   0.000000   # O_3
 460 1 2  -0.672509  15.381822   9.881590   0.000000   # O_3
 461 1 3  -0.017504  21.574895   9.555342   1.569382   # C_3
 462 1 3  -0.002594  19.165821   3.944567  24.766644   # C_3
 463 1 3  -0.087264  23.078382   9.402842   1.839955   # C_3
 464 1 3  -0.094971  18.294121   4.842356  23.856752   # C_3
 465 1 4   0.121743  18.656948   3.558610  26.760175   # H_
 466 1 4   0.180029  21.404913  10.073090  26.496594   # H_
 467 1 3  -0.019687  18.650224   4.865217  22.337397   # C_3
 468 1 4   0.065044  20.212344   4.050807  24.390638   # H_
 469 1 4   0.041465  20.948756   8.887514   2.222416   # H_
 470 1 4   0.031506  19.478890   4.179369  22.117388   # H_
 471 1 3  -0.164611  19.045058   6.253051  21.919971   # C_3
 472 1 4   0.025528  17.775566   4.597064  21.692969   # H_
 473 1 3  -0.032331  23.235454   9.172881   3.350704   # C_3
 474 1 4   0.046793  22.833090   8.136578   3.530100   # H_
 475 1 3  -0.144484  22.400603  10.165074   4.231548   # C_3
 476 1 4   0.051551  24.333887   9.154054   3.609174   # H_
 477 1 4   0.012464  21.247033  10.606169   1.749585   # H_
 478 1 4   0.035517  18.827469   2.885672  24.624902   # H_
 479 1 4   0.019554  23.590213  10.306278   1.456687   # H_
 480 1 4   0.037432  23.479670   8.526570   1.323014   # H_
 481 1 4   0.085244  18.249205   5.872742  24.274716   # H_
 482 1 4   0.053650  17.266694   4.448598  23.912696   # H_
 483 1 4   0.056490  19.325045   6.234762  20.848434   # H_
 484 1 4   0.072872  19.916219   6.567196  22.517600   # H_
 485 1 4   0.070250  22.642667  10.019298   5.312229   # H_
 486 1 4   0.056985  21.283881   9.980568   4.172376   # H_
 487 1 4   0.063784  18.195144   6.965526  22.036431   # H_
 488 1 4   0.056737  22.653425  11.226659   4.013152   # H_