 (written by mofun)

1008 atoms
0 bonds
0 angles
0 dihedrals
0 impropers

5 atom types
   0.000000  20.700400 xlo xhi
   0.000000  20.700400 ylo yhi
   0.000000  20.700400 zlo zhi

Masses

 1 91.2240   # Zr3+4
 2 15.9994   # O_3
 3 12.0107   # C_3
 4 1.0079   # H_
 5 14.0067   # N_3

Pair Coeffs

 1   0.069000   2.783168 # Zr3+4
 2   0.060000   3.118146 # O_3
 3   0.105000   3.430851 # C_3
 4   0.044000   2.571134 # H_
 5   0.069000   3.260689 # N_3

Atoms

 1 1 1   3.172830   2.481771   0.000000   0.000000   # Zr3+4
 2 1 1   3.191170   2.481771  10.350200  10.350200   # Zr3+4
 3 1 1   3.180420  12.831971   0.000000  10.350200   # Zr3+4
 4 1 1   3.182630  12.831971  10.350200   0.000000   # Zr3+4
 5 1 1   3.170480  18.218629   0.000000   0.000000   # Zr3+4
 6 1 1   3.191000  18.218629  10.350200  10.350200   # Zr3+4
 7 1 1   3.181020   7.868429   0.000000  10.350200   # Zr3+4
 8 1 1   3.180290   7.868429  10.350200   0.000000   # Zr3+4
 9 1 1   3.172790   0.000000   2.481771   0.000000   # Zr3+4
 10 1 1   3.147250   0.000000  12.831971  10.350200   # Zr3+4
 11 1 1   3.191180  10.350200   2.481771  10.350200   # Zr3+4
 12 1 1   3.183480  10.350200  12.831971   0.000000   # Zr3+4
 13 1 1   3.170470   0.000000  18.218629   0.000000   # Zr3+4
 14 1 1   3.213360   0.000000   7.868429  10.350200   # Zr3+4
 15 1 1   3.191000  10.350200  18.218629  10.350200   # Zr3+4
 16 1 1   3.180280  10.350200   7.868429   0.000000   # Zr3+4
 17 1 1   3.203630   0.000000   0.000000   2.481771   # Zr3+4
 18 1 1   3.180400   0.000000  10.350200  12.831971   # Zr3+4
 19 1 1   3.147270  10.350200   0.000000  12.831971   # Zr3+4
 20 1 1   3.191670  10.350200  10.350200   2.481771   # Zr3+4
 21 1 1   3.138340   0.000000   0.000000  18.218629   # Zr3+4
 22 1 1   3.181010   0.000000  10.350200   7.868429   # Zr3+4
 23 1 1   3.213360  10.350200   0.000000   7.868429   # Zr3+4
 24 1 1   3.191550  10.350200  10.350200  18.218629   # Zr3+4
 25 1 2  -1.308190   1.161292   9.188908   9.188908   # O_3
 26 1 2  -1.231130  11.511492  19.539108   9.188908   # O_3
 27 1 2  -1.340900  11.511492   9.188908  19.539108   # O_3
 28 1 2  -1.308180   9.188908   1.161292   9.188908   # O_3
 29 1 2  -1.340600   9.188908  11.511492  19.539108   # O_3
 30 1 2  -1.197460  19.539108  19.539108   1.161292   # O_3
 31 1 2  -1.231200  19.539108   9.188908  11.511492   # O_3
 32 1 2  -1.348410   1.161292   1.161292   1.161292   # O_3
 33 1 2  -1.411400  11.511492  11.511492   1.161292   # O_3
 34 1 2  -1.359450  19.539108   1.161292   1.161292   # O_3
 35 1 2  -1.456130  19.539108  11.511492  11.511492   # O_3
 36 1 2  -1.531870   9.188908   1.161292  11.511492   # O_3
 37 1 2  -1.419080   9.188908  11.511492   1.161292   # O_3
 38 1 2  -1.359520   1.161292  19.539108   1.161292   # O_3
 39 1 2  -1.402610   1.161292   9.188908  11.511492   # O_3
 40 1 2  -1.456160  11.511492  19.539108  11.511492   # O_3
 41 1 2  -1.418940  11.511492   9.188908   1.161292   # O_3
 42 1 2  -1.344420  19.539108  19.539108  19.539108   # O_3
 43 1 2  -1.320470  19.539108   9.188908   9.188908   # O_3
 44 1 2  -1.320520   9.188908  19.539108   9.188908   # O_3
 45 1 2  -1.349570   9.188908   9.188908  19.539108   # O_3
 46 1 2  -1.490260   1.161292   1.161292  19.539108   # O_3
 47 1 2  -1.531890   1.161292  11.511492   9.188908   # O_3
 48 1 2  -1.402610  11.511492   1.161292   9.188908   # O_3
 49 1 3   0.532657   3.179581   0.000000  17.520819   # C_3
 50 1 2  -0.743316   3.528590   0.000000  18.727859   # O_3
 51 1 2  -0.790525   1.972541   0.000000  17.171810   # O_3
 52 1 3  -0.161628   4.243582   0.000000  16.456818   # C_3
 53 1 3  -0.006823   3.816533   0.000000  15.162836   # C_3
 54 1 4   0.006226   2.700574   0.000000  14.930785   # H_
 55 1 5   0.002442   4.419949  20.570815  12.819137   # N_3
 56 1 3   0.018445   4.812636   0.000000  14.167768   # C_3
 57 1 3  -0.175181   6.106618   0.000000  14.593782   # C_3
 58 1 3  -0.000143   6.532632   0.000000  15.887764   # C_3
 59 1 3   0.006688   5.537564   0.000000  16.883867   # C_3
 60 1 5   0.010688   5.770858  20.538730  18.204760   # N_3
 61 1 4  -0.010567   7.648591   0.000000  16.119815   # H_
 62 1 2  -0.803326   8.377452   0.000000  13.878790   # O_3
 63 1 3   0.539713   7.170619   0.000000  13.529781   # C_3
 64 1 2  -0.779461   6.821610   0.000000  12.322741   # O_3
 65 1 3  -0.065368   3.790864  19.326100  12.537611   # C_3
 66 1 3  -0.062831   3.782170   1.025705  12.416514   # C_3
 67 1 4   0.047460   4.507098   1.827224  12.194192   # H_
 68 1 4   0.037936   3.056414   1.414458  13.121777   # H_
 69 1 3  -0.197357   3.013150   0.452718  11.343819   # C_3
 70 1 3   0.077561   2.797659  19.711749  11.596157   # C_3
 71 1 4   0.039968   3.799351   0.498673  10.626757   # H_
 72 1 4   0.044533   2.150151   0.909990  10.949270   # H_
 73 1 4   0.055884   3.268800  18.922443  13.442012   # H_
 74 1 4   0.058970   4.531525  18.567845  12.321499   # H_
 75 1 4   0.006108   2.967609  19.109160  10.818650   # H_
 76 1 4   0.009752   1.756636  19.560429  11.909147   # H_
 77 1 3  -0.042346   5.980967  19.225496  18.484215   # C_3
 78 1 3  -0.092385   6.492473   0.834019  18.765534   # C_3
 79 1 4   0.048445   6.730528   1.632848  17.988234   # H_
 80 1 3  -0.155972   7.670119   0.080525  19.209557   # C_3
 81 1 4   0.088582   5.791351   1.262310  19.421736   # H_
 82 1 4   0.037015   8.276641   0.654340  18.561428   # H_
 83 1 3   0.002197   7.061941  19.382820  19.316164   # C_3
 84 1 4   0.052185   8.305414   0.027739  20.030742   # H_
 85 1 4   0.054058   6.055488  18.593513  17.516885   # H_
 86 1 4   0.084507   5.030404  18.850405  18.918510   # H_
 87 1 4   0.095369   6.987420  19.347422  20.237953   # H_
 88 1 4   0.044516   7.082021  18.409280  19.114956   # H_
 89 1 3   0.556716   3.179581  10.350200   7.170619   # C_3
 90 1 2  -0.652380   3.528590  10.350200   8.377659   # O_3
 91 1 2  -0.671494   1.972541  10.350200   6.821610   # O_3
 92 1 3  -0.170756   4.243582  10.350200   6.106618   # C_3
 93 1 3  -0.004248   3.816533  10.350200   4.812636   # C_3
 94 1 4   0.034269   2.700574  10.350200   4.580585   # H_
 95 1 5  -0.112731   4.419328  10.217924   2.468730   # N_3
 96 1 3   0.103774   4.812636  10.350200   3.817568   # C_3
 97 1 3  -0.169304   6.106618  10.350200   4.243582   # C_3
 98 1 3  -0.014139   6.532632  10.350200   5.537564   # C_3
 99 1 3   0.110649   5.537564  10.350200   6.533667   # C_3
 100 1 5  -0.115517   5.770858  10.188944   7.855388   # N_3
 101 1 4   0.036857   7.648591  10.350200   5.769615   # H_
 102 1 2  -0.745138   8.377452  10.350200   3.528590   # O_3
 103 1 3   0.543981   7.170619  10.350200   3.179581   # C_3
 104 1 2  -0.743044   6.821610  10.350200   1.972541   # O_3
 105 1 3  -0.010575   3.790864   8.973416   2.187204   # C_3
 106 1 3  -0.023142   3.778237  11.371972   2.067763   # C_3
 107 1 4   0.041032   4.501509  12.173491   1.840059   # H_
 108 1 4   0.033039   3.055793  11.761346   2.774268   # H_
 109 1 3  -0.058773   3.009631  10.799192   0.992998   # C_3
 110 1 3  -0.089967   2.796210   9.356788   1.248441   # C_3
 111 1 4   0.006718   3.792313  10.844526   0.274901   # H_
 112 1 4  -0.000456   2.146424  11.254807   0.598242   # H_
 113 1 4   0.024460   3.268800   8.568517   3.094296   # H_
 114 1 4   0.030826   4.529455   8.213919   1.969022   # H_
 115 1 4   0.019336   2.966781   8.758132   0.468036   # H_
 116 1 4   0.018504   1.757671   9.207538   1.561638   # H_
 117 1 3   0.015752   5.983037   8.875089   8.135050   # C_3
 118 1 3  -0.024117   6.495372  11.185254   8.411815   # C_3
 119 1 4   0.028365   6.735289  11.982634   7.628718   # H_
 120 1 3  -0.045463   7.672396  10.431553   8.859771   # C_3
 121 1 4   0.047094   5.790523  11.619342   9.065740   # H_
 122 1 4   0.025729   8.276020  11.000607   8.215575   # H_
 123 1 3  -0.147687   7.061734   9.035518   8.966171   # C_3
 124 1 4   0.026522   8.304793  10.379181   9.681163   # H_
 125 1 4   0.018208   6.058179   8.244762   7.165857   # H_
 126 1 4   0.041143   5.028541   8.502896   8.568724   # H_
 127 1 4   0.078560   6.990111   9.003639   9.890237   # H_
 128 1 4   0.067780   7.083884   8.060115   8.773451   # H_
 129 1 3   0.534969  13.529781   0.000000   7.170619   # C_3
 130 1 2  -0.696788  13.878790   0.000000   8.377659   # O_3
 131 1 2  -0.686802  12.322741   0.000000   6.821610   # O_3
 132 1 3  -0.159421  14.593782   0.000000   6.106618   # C_3
 133 1 3  -0.006091  14.166733   0.000000   4.812636   # C_3
 134 1 4   0.010363  13.050774   0.000000   4.580585   # H_
 135 1 5   0.002668  14.769942  20.568124   2.468109   # N_3
 136 1 3   0.018476  15.162629   0.000000   3.817568   # C_3
 137 1 3  -0.166335  16.456611   0.000000   4.243582   # C_3
 138 1 3  -0.001639  16.882832   0.000000   5.537564   # C_3
 139 1 3   0.006487  15.887764   0.000000   6.533667   # C_3
 140 1 5   0.011308  16.120437  20.539144   7.854146   # N_3
 141 1 4  -0.007361  17.998791   0.000000   5.769615   # H_
 142 1 2  -0.671130  18.727652   0.000000   3.528590   # O_3
 143 1 3   0.537343  17.520612   0.000000   3.179581   # C_3
 144 1 2  -0.702553  17.171603   0.000000   1.972541   # O_3
 145 1 3  -0.066250  14.141064  19.323202   2.188032   # C_3
 146 1 3  -0.071950  14.131128   1.020737   2.062588   # C_3
 147 1 4   0.048764  14.859989   1.819772   1.835297   # H_
 148 1 4   0.038288  13.408891   1.411353   2.770749   # H_
 149 1 3  -0.182022  13.362315   0.448164   0.991963   # C_3
 150 1 3   0.069857  13.145168  19.708230   1.245129   # C_3
 151 1 4  -0.000417  14.151414   0.487287   0.274901   # H_
 152 1 4   0.017593  12.499523   0.897983   0.592859   # H_
 153 1 4   0.064044  13.620035  18.916647   3.093882   # H_
 154 1 4   0.067684  14.882139  18.568466   1.965917   # H_
 155 1 4  -0.019980  13.319258  19.106676   0.469278   # H_
 156 1 4   0.017199  12.106422  19.560843   1.558740   # H_
 157 1 3  -0.067954  16.331995  19.225911   8.133601   # C_3
 158 1 3  -0.080793  16.841431   0.834640   8.412850   # C_3
 159 1 4   0.038719  17.083419   1.634297   7.635964   # H_
 160 1 3  -0.202491  18.020733   0.084665   8.858943   # C_3
 161 1 4   0.045394  16.142793   1.265001   9.068431   # H_
 162 1 4   0.059621  18.626634   0.660964   8.217024   # H_
 163 1 3   0.074166  17.412762  19.384476   8.963480   # C_3
 164 1 4   0.037545  18.656443   0.030223   9.680128   # H_
 165 1 4   0.064297  16.406723  18.598067   7.161303   # H_
 166 1 4   0.083781  15.378120  18.846058   8.566447   # H_
 167 1 4   0.026362  17.337206  19.350734   9.886925   # H_
 168 1 4   0.011799  17.432842  18.410522   8.764342   # H_
 169 1 3   0.540134  13.529781  10.350200  17.520819   # C_3
 170 1 2  -0.701734  13.878790  10.350200  18.727859   # O_3
 171 1 2  -0.735866  12.322741  10.350200  17.171810   # O_3
 172 1 3  -0.167896  14.593782  10.350200  16.456818   # C_3
 173 1 3  -0.005820  14.166733  10.350200  15.162836   # C_3
 174 1 4   0.039266  13.050774  10.350200  14.930785   # H_
 175 1 5  -0.111966  14.770563  10.217510  12.818102   # N_3
 176 1 3   0.103237  15.162629  10.350200  14.167768   # C_3
 177 1 3  -0.160261  16.456611  10.350200  14.593782   # C_3
 178 1 3  -0.015614  16.882832  10.350200  15.887764   # C_3
 179 1 3   0.110745  15.887764  10.350200  16.883867   # C_3
 180 1 5  -0.114796  16.121058  10.187081  18.203725   # N_3
 181 1 4   0.040555  17.998791  10.350200  16.119815   # H_
 182 1 2  -0.629492  18.727652  10.350200  13.878790   # O_3
 183 1 3   0.541471  17.520612  10.350200  13.529781   # C_3
 184 1 2  -0.648124  17.171603  10.350200  12.322741   # O_3
 185 1 3  -0.008721  14.143341   8.970932  12.538853   # C_3
 186 1 3  -0.014212  14.130093  11.369074  12.413202   # C_3
 187 1 4   0.040450  14.855642  12.172042  12.188396   # H_
 188 1 4   0.027706  13.403095  11.757206  13.115566   # H_
 189 1 3  -0.070770  13.362729  10.795466  11.341542   # C_3
 190 1 3  -0.087330  13.146203   9.355753  11.598020   # C_3
 191 1 4   0.045284  14.156590  10.836659  10.625101   # H_
 192 1 4   0.035093  12.502214  11.249425  10.939747   # H_
 193 1 4   0.027974  13.625624   8.561271  13.446359   # H_
 194 1 4   0.039884  14.887935   8.217231  12.316324   # H_
 195 1 4   0.048388  13.313669   8.754820  10.823204   # H_
 196 1 4   0.035436  12.109527   9.208987  11.915357   # H_
 197 1 3   0.027130  16.333030   8.874675  18.482766   # C_3
 198 1 3  -0.027168  16.841017  11.184840  18.764292   # C_3
 199 1 4   0.031582  17.081763  11.984083  17.984922   # H_
 200 1 3  -0.024824  18.020940  10.434451  19.209143   # C_3
 201 1 4   0.081911  16.143000  11.614580  19.420287   # H_
 202 1 4   0.033673  18.624357  11.010957  18.563705   # H_
 203 1 3  -0.181730  17.412348   9.035518  19.314508   # C_3
 204 1 4   0.069138  18.655200  10.382493  20.029086   # H_
 205 1 4   0.023627  16.406723   8.247453  17.511296   # H_
 206 1 4   0.059497  15.377706   8.497721  18.916647   # H_
 207 1 4   0.135383  17.339897   9.000741  20.238781   # H_
 208 1 4   0.094377  17.430565   8.059494  19.118061   # H_
 209 1 3   0.524283  17.520819   0.000000  17.520819   # C_3
 210 1 2  -0.749626  17.171810   0.000000  18.727859   # O_3
 211 1 2  -0.758593  18.727859   0.000000  17.171810   # O_3
 212 1 3  -0.162385  16.456818   0.000000  16.456818   # C_3
 213 1 3  -0.005156  16.883867   0.000000  15.162836   # C_3
 214 1 4   0.005495  17.999826   0.000000  14.930785   # H_
 215 1 5   0.007897  16.282728  20.690050  12.925123   # N_3
 216 1 3   0.005011  15.887971   0.000000  14.167768   # C_3
 217 1 3  -0.165361  14.593989   0.000000  14.593782   # C_3
 218 1 3  -0.003592  14.167768   0.000000  15.887764   # C_3
 219 1 3   0.008920  15.162836   0.000000  16.883867   # C_3
 220 1 5   0.023215  14.861852  20.697295  18.258167   # N_3
 221 1 4   0.012098  13.051809   0.000000  16.119815   # H_
 222 1 2  -0.787500  12.322948   0.000000  13.878790   # O_3
 223 1 3   0.526701  13.529988   0.000000  13.529781   # C_3
 224 1 2  -0.778303  13.878997   0.000000  12.322741   # O_3
 225 1 3   0.049455  16.604205   1.205798  12.509459   # C_3
 226 1 3  -0.172810  16.030183  19.582992  12.108699   # C_3
 227 1 4   0.119403  15.162422  18.976471  12.386291   # H_
 228 1 4   0.074922  16.895873  18.898637  12.043907   # H_
 229 1 3   0.407442  15.891283  20.473938  11.022342   # C_3
 230 1 3  -0.419460  17.086110   0.582095  11.399503   # C_3
 231 1 4  -0.200446  15.168632   0.548354  10.874127   # H_
 232 1 4  -0.091717  15.617003  19.925377  10.260981   # H_
 233 1 4   0.005238  17.344037   1.623946  13.156553   # H_
 234 1 4   0.020725  15.727336   1.857654  12.455017   # H_
 235 1 4   0.168238  17.258130   1.245750  10.805816   # H_
 236 1 4   0.066532  18.090494   0.051958  11.570489   # H_
 237 1 3  -0.269374  13.722502   0.672349  18.607797   # C_3
 238 1 3   0.050372  15.077757  19.488599  18.967156   # C_3
 239 1 4   0.076914  15.866236  18.770709  18.576125   # H_
 240 1 3  -0.187765  13.824969  18.890771  18.715439   # C_3
 241 1 4   0.084246  15.311051  19.804901  20.012733   # H_
 242 1 4   0.094782  13.968837  18.444884  17.762806   # H_
 243 1 3   0.144079  12.965489  20.107334  18.912713   # C_3
 244 1 4   0.110269  13.533301  18.172674  19.381992   # H_
 245 1 4   0.088524  13.386328   1.320893  17.863824   # H_
 246 1 4   0.111341  14.014999   1.414872  19.330655   # H_
 247 1 4   0.042898  12.172870  20.171919  19.641368   # H_
 248 1 4   0.020775  12.600747  19.876731  18.078694   # H_
 249 1 3   0.534451  17.520819  10.350200   7.170619   # C_3
 250 1 2  -0.730829  17.171810  10.350200   8.377659   # O_3
 251 1 2  -0.709600  18.727859  10.350200   6.821610   # O_3
 252 1 3  -0.159874  16.456818  10.350200   6.106618   # C_3
 253 1 3  -0.021888  16.883867  10.350200   4.812636   # C_3
 254 1 4   0.043374  17.999826  10.350200   4.580585   # H_
 255 1 5  -0.127028  16.282521  10.339850   2.575958   # N_3
 256 1 3   0.124554  15.887971  10.350200   3.817568   # C_3
 257 1 3  -0.175826  14.593989  10.350200   4.243582   # C_3
 258 1 3  -0.002236  14.167768  10.350200   5.537564   # C_3
 259 1 3   0.099370  15.162836  10.350200   6.533667   # C_3
 260 1 5  -0.114483  14.862266  10.345232   7.909002   # N_3
 261 1 4   0.036388  13.051809  10.350200   5.769615   # H_
 262 1 2  -0.653987  12.322948  10.350200   3.528590   # O_3
 263 1 3   0.551220  13.529988  10.350200   3.179581   # C_3
 264 1 2  -0.651296  13.878997  10.350200   1.972541   # O_3
 265 1 3  -0.070144  16.603998  11.557033   2.160915   # C_3
 266 1 3   0.102050  16.029769   9.232171   1.759327   # C_3
 267 1 4   0.022520  15.162629   8.627513   2.036712   # H_
 268 1 4  -0.013411  16.894424   8.549265   1.694535   # H_
 269 1 3  -0.350854  15.891490  10.123945   0.671935   # C_3
 270 1 3   0.096387  17.086317  10.932916   1.050338   # C_3
 271 1 4   0.013254  15.170081  10.898968   0.523927   # H_
 272 1 4   0.183596  15.617831   9.572693  20.609111   # H_
 273 1 4   0.037859  17.340932  11.975802   2.808837   # H_
 274 1 4   0.066903  15.726922  12.209303   2.106887   # H_
 275 1 4  -0.043524  17.264341  11.594915   0.454581   # H_
 276 1 4  -0.022665  18.087596  10.399260   1.220703   # H_
 277 1 3  -0.017859  13.724572  11.024412   8.258425   # C_3
 278 1 3   0.025517  15.076929   9.136329   8.616749   # C_3
 279 1 4   0.040625  15.865822   8.418646   8.226753   # H_
 280 1 3  -0.108163  13.824141   8.542020   8.365653   # C_3
 281 1 4   0.006940  15.311672   9.452424   9.661912   # H_
 282 1 4   0.053324  13.969872   8.095719   7.410536   # H_
 283 1 3  -0.085780  12.967352   9.760032   8.562099   # C_3
 284 1 4   0.054809  13.540753   7.824130   9.029721   # H_
 285 1 4   0.025297  13.389019  11.673991   7.512589   # H_
 286 1 4   0.029098  14.018932  11.765900   8.983767   # H_
 287 1 4   0.032557  12.177424   9.826066   9.294480   # H_
 288 1 4   0.054598  12.600954   9.529222   7.726838   # H_
 289 1 3   0.538030   7.170619   0.000000   7.170619   # C_3
 290 1 2  -0.709791   6.821610   0.000000   8.377659   # O_3
 291 1 2  -0.699359   8.377659   0.000000   6.821610   # O_3
 292 1 3  -0.167837   6.106618   0.000000   6.106618   # C_3
 293 1 3  -0.002828   6.533667   0.000000   4.812636   # C_3
 294 1 4   0.001232   7.649626   0.000000   4.580585   # H_
 295 1 5   0.009550   5.931907  20.690878   2.575751   # N_3
 296 1 3   0.004630   5.537564   0.000000   3.817568   # C_3
 297 1 3  -0.159821   4.243582   0.000000   4.243582   # C_3
 298 1 3  -0.003074   3.817568   0.000000   5.537564   # C_3
 299 1 3   0.009143   4.812636   0.000000   6.533667   # C_3
 300 1 5   0.020317   4.512273  20.696881   7.908795   # N_3
 301 1 4   0.008898   2.701609   0.000000   5.769615   # H_
 302 1 2  -0.679718   1.972748   0.000000   3.528590   # O_3
 303 1 3   0.531970   3.179581   0.000000   3.179581   # C_3
 304 1 2  -0.696620   3.528590   0.000000   1.972541   # O_3
 305 1 3  -0.040403   6.253177   1.208903   2.161329   # C_3
 306 1 3  -0.061957   5.679362  19.583406   1.759534   # C_3
 307 1 4   0.089978   4.815120  18.978955   2.040645   # H_
 308 1 4   0.039539   6.545673  18.901328   1.691223   # H_
 309 1 3   0.089598   5.543360  20.476422   0.670900   # C_3
 310 1 3  -0.221324   6.736117   0.583958   1.051580   # C_3
 311 1 4  -0.140845   4.819260   0.548975   0.524548   # H_
 312 1 4   0.079360   5.267217  19.929517  20.608697   # H_
 313 1 4   0.028588   6.990939   1.625602   2.811942   # H_
 314 1 4   0.054579   5.377550   1.862208   2.102540   # H_
 315 1 4   0.064893   6.915383   1.244922   0.452925   # H_
 316 1 4   0.000289   7.736360   0.050095   1.222152   # H_
 317 1 3  -0.272619   3.373544   0.673384   8.256355   # C_3
 318 1 3   0.044986   4.729213  19.490462   8.619440   # C_3
 319 1 4   0.056247   5.516657  18.770502   8.230479   # H_
 320 1 3  -0.183538   3.474976  18.891392   8.365653   # C_3
 321 1 4   0.034946   4.959402  19.807385   9.666466   # H_
 322 1 4   0.090198   3.623398  18.444884   7.411778   # H_
 323 1 3   0.125590   2.616531  20.108783   8.562306   # C_3
 324 1 4   0.076052   3.185171  18.172053   9.033241   # H_
 325 1 4   0.089229   3.041303   1.325033   7.507828   # H_
 326 1 4   0.080350   3.665006   1.415907   8.980248   # H_
 327 1 4   0.008214   1.829294  20.177094   9.298827   # H_
 328 1 4   0.025508   2.247442  19.875696   7.727459   # H_
 329 1 3   0.543683   7.170619  10.350200  17.520819   # C_3
 330 1 2  -0.621964   6.821610  10.350200  18.727859   # O_3
 331 1 2  -0.660052   8.377659  10.350200  17.171810   # O_3
 332 1 3  -0.157293   6.106618  10.350200  16.456818   # C_3
 333 1 3  -0.019083   6.533667  10.350200  15.162836   # C_3
 334 1 4   0.040447   7.649626  10.350200  14.930785   # H_
 335 1 5  -0.124961   5.932114  10.339436  12.925744   # N_3
 336 1 3   0.120957   5.537564  10.350200  14.167768   # C_3
 337 1 3  -0.176477   4.243582  10.350200  14.593782   # C_3
 338 1 3  -0.002383   3.817568  10.350200  15.887764   # C_3
 339 1 3   0.100533   4.812636  10.350200  16.883867   # C_3
 340 1 5  -0.107896   4.511445  10.348958  18.260030   # N_3
 341 1 4   0.035097   2.701609  10.350200  16.119815   # H_
 342 1 2  -0.731973   1.972748  10.350200  13.878790   # O_3
 343 1 3   0.538019   3.179581  10.350200  13.529781   # C_3
 344 1 2  -0.730497   3.528590  10.350200  12.322741   # O_3
 345 1 3   0.014304   6.255454  11.555791  12.509666   # C_3
 346 1 3  -0.008133   5.680811   9.231550  12.108492   # C_3
 347 1 4   0.052714   4.813464   8.620475  12.391880   # H_
 348 1 4   0.022942   6.547330   8.552163  12.041630   # H_
 349 1 3  -0.034484   5.540048  10.123324  11.024205   # C_3
 350 1 3  -0.095073   6.736531  10.932088  11.399917   # C_3
 351 1 4  -0.045220   4.818639  10.899796  10.874748   # H_
 352 1 4   0.012677   5.264733   9.577247  10.259325   # H_
 353 1 4   0.017408   6.996942  11.972076  13.158830   # H_
 354 1 4   0.032484   5.382725  12.209096  12.455224   # H_
 355 1 4   0.055635   6.913313  11.593880  10.804781   # H_
 356 1 4   0.035696   7.741536  10.403400  11.572973   # H_
 357 1 3  -0.023966   3.372302  11.025447  18.608625   # C_3
 358 1 3   0.028635   4.727557   9.142539  18.970261   # C_3
 359 1 4   0.058707   5.517899   8.424649  18.579851   # H_
 360 1 3  -0.108954   3.474769   8.542641  18.717095   # C_3
 361 1 4   0.059035   4.960644   9.459462  20.017080   # H_
 362 1 4   0.057888   3.621742   8.096133  17.762806   # H_
 363 1 3  -0.062589   2.613425   9.760446  18.913955   # C_3
 364 1 4   0.089012   3.184136   7.823923  19.385511   # H_
 365 1 4   0.027935   3.036749  11.675233  17.860512   # H_
 366 1 4   0.066339   3.665006  11.766728  19.333760   # H_
 367 1 4   0.053280   1.822256   9.827101  19.644887   # H_
 368 1 4   0.044521   2.246407   9.528394  18.079936   # H_
 369 1 3   0.530177  17.520819   3.179581   0.000000   # C_3
 370 1 2  -0.738756  18.727859   3.528590   0.000000   # O_3
 371 1 2  -0.778542  17.171810   1.972541   0.000000   # O_3
 372 1 3  -0.160721  16.456818   4.243582   0.000000   # C_3
 373 1 3  -0.007053  15.162836   3.816533   0.000000   # C_3
 374 1 4   0.008166  14.930785   2.700574   0.000000   # H_
 375 1 5  -0.004078  12.819137   4.419742  20.567503   # N_3
 376 1 3   0.024208  14.167768   4.812636   0.000000   # C_3
 377 1 3  -0.171114  14.593782   6.106618   0.000000   # C_3
 378 1 3  -0.000713  15.887764   6.532632   0.000000   # C_3
 379 1 3   0.012886  16.883867   5.537564   0.000000   # C_3
 380 1 5   0.002938  18.205174   5.770651  20.538523   # N_3
 381 1 4  -0.008771  16.119815   7.648591   0.000000   # H_
 382 1 2  -0.712065  13.878790   8.377452   0.000000   # O_3
 383 1 3   0.545665  13.529781   7.170619   0.000000   # C_3
 384 1 2  -0.697728  12.322741   6.821610   0.000000   # O_3
 385 1 3  -0.062750  12.539267   3.790450  19.323202   # C_3
 386 1 3  -0.060665  12.414651   3.780307   1.021565   # C_3
 387 1 4   0.047125  12.187568   4.509582   1.817909   # H_
 388 1 4   0.037667  13.118050   3.057449   1.416735   # H_
 389 1 3  -0.189854  11.342370   3.011701   0.448992   # C_3
 390 1 3   0.068313  11.596985   2.796831  19.708644   # C_3
 391 1 4   0.040295  10.624273   3.795004   0.491013   # H_
 392 1 4   0.043678  10.945958   2.147459   0.896120   # H_
 393 1 4   0.055001  13.447601   3.271698  18.914369   # H_
 394 1 4   0.064313  12.315289   4.530076  18.569087   # H_
 395 1 4   0.008474  10.820099   2.970300  19.106055   # H_
 396 1 4   0.010438  11.912045   1.760569  19.557531   # H_
 397 1 3  -0.035575  18.484629   5.980553  19.225496   # C_3
 398 1 3  -0.088698  18.763464   6.492680   0.833605   # C_3
 399 1 4   0.047701  17.986578   6.733426   1.634711   # H_
 400 1 3  -0.144967  19.208522   7.670533   0.082595   # C_3
 401 1 4   0.090949  19.419459   5.790937   1.262724   # H_
 402 1 4   0.035744  18.564947   8.278090   0.656617   # H_
 403 1 3  -0.014528  19.314301   7.062148  19.383027   # C_3
 404 1 4   0.054101  20.029914   8.306243   0.027739   # H_
 405 1 4   0.052698  17.513780   6.056109  18.595790   # H_
 406 1 4   0.082846  18.916854   5.026264  18.846472   # H_
 407 1 4   0.102688  20.236918   6.987006  19.348664   # H_
 408 1 4   0.049997  19.113300   7.082435  18.410108   # H_
 409 1 3   0.543397  17.520819  13.529781  10.350200   # C_3
 410 1 2  -0.709680  18.727859  13.878790  10.350200   # O_3
 411 1 2  -0.737177  17.171810  12.322741  10.350200   # O_3
 412 1 3  -0.168334  16.456818  14.593782  10.350200   # C_3
 413 1 3  -0.005429  15.162836  14.166733  10.350200   # C_3
 414 1 4   0.038734  14.930785  13.050774  10.350200   # H_
 415 1 5  -0.112047  12.818723  14.769735  10.217924   # N_3
 416 1 3   0.103233  14.167768  15.162629  10.350200   # C_3
 417 1 3  -0.159812  14.593782  16.456611  10.350200   # C_3
 418 1 3  -0.015896  15.887764  16.882832  10.350200   # C_3
 419 1 3   0.112579  16.883867  15.887764  10.350200   # C_3
 420 1 5  -0.115354  18.205588  16.120851  10.188323   # N_3
 421 1 4   0.040779  16.119815  17.998791  10.350200   # H_
 422 1 2  -0.629251  13.878790  18.727652  10.350200   # O_3
 423 1 3   0.541386  13.529781  17.520612  10.350200   # C_3
 424 1 2  -0.648001  12.322741  17.171603  10.350200   # O_3
 425 1 3  -0.007986  12.536990  14.142099   8.972588   # C_3
 426 1 3  -0.014186  12.417963  14.128437  11.371972   # C_3
 427 1 4   0.040507  12.191294  14.851088  12.174112   # H_
 428 1 4   0.028234  13.121777  13.403302  11.758448   # H_
 429 1 3  -0.071712  11.343405  13.360038  10.798985   # C_3
 430 1 3  -0.087135  11.599262  13.147031   9.356581   # C_3
 431 1 4   0.045745  10.624480  14.144997  10.846803   # H_
 432 1 4   0.035370  10.946579  12.498902  11.255221   # H_
 433 1 4   0.026444  13.445531  13.620035   8.567068   # H_
 434 1 4   0.039741  12.317566  14.882139   8.213919   # H_
 435 1 4   0.048305  10.819892  13.314290   8.759788   # H_
 436 1 4   0.035437  11.914943  12.110148   9.207331   # H_
 437 1 3   0.034627  18.484215  16.331995   8.874675   # C_3
 438 1 3  -0.028859  18.764085  16.844122  11.184012   # C_3
 439 1 4   0.035119  17.983680  17.083419  11.982841   # H_
 440 1 3  -0.019146  19.210178  18.021354  10.430725   # C_3
 441 1 4   0.090989  19.420080  16.141758  11.615201   # H_
 442 1 4   0.032393  18.563291  18.627048  11.002056   # H_
 443 1 3  -0.193243  19.314508  17.411106   9.033655   # C_3
 444 1 4   0.070141  20.031570  18.654372  10.378353   # H_
 445 1 4   0.018745  17.516264  16.404446   8.242899   # H_
 446 1 4   0.044658  18.918510  15.378741   8.501654   # H_
 447 1 4   0.142994  20.236297  17.337827   8.999499   # H_
 448 1 4   0.098261  19.114128  17.434498   8.059494   # H_
 449 1 3   0.556833   7.170619   3.179581  10.350200   # C_3
 450 1 2  -0.652391   8.377659   3.528590  10.350200   # O_3
 451 1 2  -0.671487   6.821610   1.972541  10.350200   # O_3
 452 1 3  -0.170897   6.106618   4.243582  10.350200   # C_3
 453 1 3  -0.003636   4.812636   3.816533  10.350200   # C_3
 454 1 4   0.034172   4.580585   2.700574  10.350200   # H_
 455 1 5  -0.112125   2.467488   4.419742  10.217717   # N_3
 456 1 3   0.103447   3.817568   4.812636  10.350200   # C_3
 457 1 3  -0.165044   4.243582   6.106618  10.350200   # C_3
 458 1 3  -0.014350   5.537564   6.532632  10.350200   # C_3
 459 1 3   0.111258   6.533667   5.537564  10.350200   # C_3
 460 1 5  -0.115554   7.853525   5.770444  10.187081   # N_3
 461 1 4   0.036020   5.769615   7.648591  10.350200   # H_
 462 1 2  -0.663610   3.528590   8.377452  10.350200   # O_3
 463 1 3   0.549677   3.179581   7.170619  10.350200   # C_3
 464 1 2  -0.650370   1.972541   6.821610  10.350200   # O_3
 465 1 3  -0.011518   2.188446   3.792313   8.971967   # C_3
 466 1 3  -0.023953   2.063002   3.779065  11.369488   # C_3
 467 1 4   0.040332   1.838403   4.503579  12.173698   # H_
 468 1 4   0.033131   2.769093   3.053723  11.755343   # H_
 469 1 3  -0.057137   0.992170   3.011701  10.796708   # C_3
 470 1 3  -0.090554   1.246992   2.794554   9.356167   # C_3
 471 1 4   0.004226   0.275315   3.802870  10.836245   # H_
 472 1 4  -0.002891   0.590789   2.149737  11.250046   # H_
 473 1 4   0.025797   3.095331   3.272940   8.563341   # H_
 474 1 4   0.037961   1.967366   4.535251   8.216196   # H_
 475 1 4   0.018069   0.471969   2.966988   8.755648   # H_
 476 1 4   0.018167   1.562259   1.755808   9.210850   # H_
 477 1 3   0.015168   8.133187   5.984900   8.874054   # C_3
 478 1 3  -0.024120   8.412229   6.492473  11.185047   # C_3
 479 1 4   0.028217   7.631409   6.733426  11.982634   # H_
 480 1 3  -0.046207   8.859978   7.672189  10.434451   # C_3
 481 1 4   0.047054   9.066775   5.792386  11.618721   # H_
 482 1 4   0.025888   8.216610   8.273950  11.008059   # H_
 483 1 3  -0.145636   8.964929   7.061320   9.037381   # C_3
 484 1 4   0.026679   9.681370   8.305000  10.383528   # H_
 485 1 4   0.019194   7.162131   6.060663   8.247660   # H_
 486 1 4   0.041181   8.567068   5.027713   8.497928   # H_
 487 1 4   0.077646   9.890858   6.990525   9.004881   # H_
 488 1 4   0.067201   8.774486   7.083056   8.060943   # H_