 (written by mofun)

1248 atoms
0 bonds
0 angles
0 dihedrals
0 impropers

5 atom types
   0.000000  20.700400 xlo xhi
   0.000000  20.700400 ylo yhi
   0.000000  20.700400 zlo zhi

Masses

 1 91.2240   # Zr3+4
 2 15.9994   # O_3
 3 12.0107   # C_3
 4 14.0067   # N_3
 5 1.0079   # H_

Pair Coeffs

 1   0.069000   2.783168 # Zr3+4
 2   0.060000   3.118146 # O_3
 3   0.105000   3.430851 # C_3
 4   0.069000   3.260689 # N_3
 5   0.044000   2.571134 # H_

Atoms

 1 1 1   3.173810   2.481771   0.000000   0.000000   # Zr3+4
 2 1 1   3.190180   2.481771  10.350200  10.350200   # Zr3+4
 3 1 1   3.179260  12.831971   0.000000  10.350200   # Zr3+4
 4 1 1   3.182640  12.831971  10.350200   0.000000   # Zr3+4
 5 1 1   3.171270  18.218629   0.000000   0.000000   # Zr3+4
 6 1 1   3.190760  18.218629  10.350200  10.350200   # Zr3+4
 7 1 1   3.181530   7.868429   0.000000  10.350200   # Zr3+4
 8 1 1   3.181260   7.868429  10.350200   0.000000   # Zr3+4
 9 1 1   3.173690   0.000000   2.481771   0.000000   # Zr3+4
 10 1 1   3.147720   0.000000  12.831971  10.350200   # Zr3+4
 11 1 1   3.192380  10.350200   2.481771  10.350200   # Zr3+4
 12 1 1   3.183120  10.350200  12.831971   0.000000   # Zr3+4
 13 1 1   3.172920   0.000000  18.218629   0.000000   # Zr3+4
 14 1 1   3.216750   0.000000   7.868429  10.350200   # Zr3+4
 15 1 1   3.190930  10.350200  18.218629  10.350200   # Zr3+4
 16 1 1   3.180970  10.350200   7.868429   0.000000   # Zr3+4
 17 1 1   3.204320   0.000000   0.000000   2.481771   # Zr3+4
 18 1 1   3.180000   0.000000  10.350200  12.831971   # Zr3+4
 19 1 1   3.147340  10.350200   0.000000  12.831971   # Zr3+4
 20 1 1   3.190770  10.350200  10.350200   2.481771   # Zr3+4
 21 1 1   3.139450   0.000000   0.000000  18.218629   # Zr3+4
 22 1 1   3.182590   0.000000  10.350200   7.868429   # Zr3+4
 23 1 1   3.213330  10.350200   0.000000   7.868429   # Zr3+4
 24 1 1   3.191770  10.350200  10.350200  18.218629   # Zr3+4
 25 1 2  -1.307290   1.161292   9.188908   9.188908   # O_3
 26 1 2  -1.233810  11.511492  19.539108   9.188908   # O_3
 27 1 2  -1.347510  11.511492   9.188908  19.539108   # O_3
 28 1 2  -1.309310   9.188908   1.161292   9.188908   # O_3
 29 1 2  -1.346980   9.188908  11.511492  19.539108   # O_3
 30 1 2  -1.206370  19.539108  19.539108   1.161292   # O_3
 31 1 2  -1.239610  19.539108   9.188908  11.511492   # O_3
 32 1 2  -1.346550   1.161292   1.161292   1.161292   # O_3
 33 1 2  -1.412840  11.511492  11.511492   1.161292   # O_3
 34 1 2  -1.368510  19.539108   1.161292   1.161292   # O_3
 35 1 2  -1.466740  19.539108  11.511492  11.511492   # O_3
 36 1 2  -1.533230   9.188908   1.161292  11.511492   # O_3
 37 1 2  -1.419260   9.188908  11.511492   1.161292   # O_3
 38 1 2  -1.357870   1.161292  19.539108   1.161292   # O_3
 39 1 2  -1.401120   1.161292   9.188908  11.511492   # O_3
 40 1 2  -1.458800  11.511492  19.539108  11.511492   # O_3
 41 1 2  -1.419950  11.511492   9.188908   1.161292   # O_3
 42 1 2  -1.355810  19.539108  19.539108  19.539108   # O_3
 43 1 2  -1.326640  19.539108   9.188908   9.188908   # O_3
 44 1 2  -1.320630   9.188908  19.539108   9.188908   # O_3
 45 1 2  -1.352750   9.188908   9.188908  19.539108   # O_3
 46 1 2  -1.494220   1.161292   1.161292  19.539108   # O_3
 47 1 2  -1.531620   1.161292  11.511492   9.188908   # O_3
 48 1 2  -1.404450  11.511492   1.161292   9.188908   # O_3
 49 1 3   0.529929   3.179581   0.000000  17.520819   # C_3
 50 1 2  -0.740292   3.528590   0.000000  18.727859   # O_3
 51 1 2  -0.789449   1.972541   0.000000  17.171810   # O_3
 52 1 3  -0.180831   4.243582   0.000000  16.456818   # C_3
 53 1 3   0.059715   3.816533   0.000000  15.162836   # C_3
 54 1 4  -0.179579   2.966367   1.210145  14.763525   # N_3
 55 1 5   0.012184   4.580585   0.000000  13.051809   # H_
 56 1 3  -0.025684   4.812636   0.000000  14.167768   # C_3
 57 1 3  -0.184141   6.106618   0.000000  14.593782   # C_3
 58 1 3   0.051666   6.532632   0.000000  15.887764   # C_3
 59 1 3  -0.014813   5.537564   0.000000  16.883867   # C_3
 60 1 5   0.006917   5.769615   0.000000  17.999826   # H_
 61 1 4  -0.157471   7.718972   0.935865  16.132236   # N_3
 62 1 2  -0.788326   8.377452   0.000000  13.878790   # O_3
 63 1 3   0.530465   7.170619   0.000000  13.529781   # C_3
 64 1 2  -0.780980   6.821610   0.000000  12.322741   # O_3
 65 1 5   0.073107   2.999902   1.508852  13.750862   # H_
 66 1 3   0.182525   1.947701   1.697019  15.377085   # C_3
 67 1 5  -0.015921   2.011872   2.686291  14.942998   # H_
 68 1 5   0.000667   2.166090   1.909405  16.393268   # H_
 69 1 3  -0.555218   0.867968   0.741281  14.828111   # C_3
 70 1 5   0.189160  20.683219   0.906885  15.393852   # H_
 71 1 3   0.286912   1.046819  20.012526  14.619450   # C_3
 72 1 5   0.163398   0.743765   1.066899  13.941926   # H_
 73 1 5  -0.004243   1.756636  19.616527  15.258886   # H_
 74 1 3  -0.291547   1.191515  19.429602  13.280135   # C_3
 75 1 5  -0.064442   0.081767  19.792066  15.053745   # H_
 76 1 3  -0.009862   7.548401   2.287808  15.499010   # C_3
 77 1 5   0.075120   8.561685   0.501571  15.893353   # H_
 78 1 5   0.041318   7.929081   2.361088  14.474134   # H_
 79 1 3  -0.083635   6.145535   2.874872  15.429457   # C_3
 80 1 5   0.033439   8.094684   2.958087  16.119401   # H_
 81 1 5   0.056350   5.542118   2.339352  14.723574   # H_
 82 1 5   0.040664   6.207222   3.855657  15.032630   # H_
 83 1 3  -0.058554   5.377343   3.015220  16.780365   # C_3
 84 1 3  -0.058953   5.688677   4.345221  17.446504   # C_3
 85 1 5   0.051310   5.316484   2.247856  17.551455   # H_
 86 1 5   0.041225   4.313549   2.995969  16.505671   # H_
 87 1 3   0.134505   2.108543  20.003625  12.345926   # C_3
 88 1 5   0.082704   0.305331  19.585269  12.818102   # H_
 89 1 5   0.089789   1.433089  18.382576  13.384051   # H_
 90 1 3  -0.155687   7.169377   4.825263  17.633843   # C_3
 91 1 5   0.067777   5.246102   4.351431  18.416732   # H_
 92 1 5   0.038934   5.233475   5.117346  16.880762   # H_
 93 1 5  -0.007178   1.762639  19.804073  11.388118   # H_
 94 1 5   0.013480   3.034472  19.494602  12.503042   # H_
 95 1 5  -0.071178   2.172093   0.363499  12.471784   # H_
 96 1 5   0.078430   7.197322   5.830682  18.134792   # H_
 97 1 5   0.062353   7.699721   4.950708  16.716815   # H_
 98 1 5   0.066382   7.731392   4.113583  18.227323   # H_
 99 1 3   0.549776   3.179581  10.350200   7.170619   # C_3
 100 1 2  -0.668985   3.528590  10.350200   8.377659   # O_3
 101 1 2  -0.655636   1.972541  10.350200   6.821610   # O_3
 102 1 3  -0.173900   4.243582  10.350200   6.106618   # C_3
 103 1 3   0.097532   3.816533  10.350200   4.812636   # C_3
 104 1 4  -0.160216   2.485911   9.897689   4.472528   # N_3
 105 1 5   0.044444   4.580585  10.350200   2.701609   # H_
 106 1 3  -0.016798   4.812636  10.350200   3.817568   # C_3
 107 1 3  -0.172656   6.106618  10.350200   4.243582   # C_3
 108 1 3   0.097644   6.532632  10.350200   5.537564   # C_3
 109 1 3  -0.007547   5.537564  10.350200   6.533667   # C_3
 110 1 5   0.036280   5.769615  10.350200   7.649626   # H_
 111 1 4  -0.148318   7.818541  10.997916   5.863181   # N_3
 112 1 2  -0.749525   8.377452  10.350200   3.528590   # O_3
 113 1 3   0.542927   7.170619  10.350200   3.179581   # C_3
 114 1 2  -0.749263   6.821610  10.350200   1.972541   # O_3
 115 1 5   0.074304   2.513443   9.336501   3.607459   # H_
 116 1 3   0.116677   1.687290  11.013648   4.340667   # C_3
 117 1 5  -0.011209   1.822049  11.492034   3.370646   # H_
 118 1 5   0.009389   1.862001  11.810199   5.082983   # H_
 119 1 3  -0.491227   0.274073  10.351856   4.443962   # C_3
 120 1 5   0.055615   0.118199   9.897068   5.368442   # H_
 121 1 3   0.450629  20.202141   9.631896   3.295297   # C_3
 122 1 5   0.224395  20.456342  11.197674   4.391590   # H_
 123 1 5  -0.060479  19.554840   8.903449   3.726486   # H_
 124 1 3  -0.669089   0.254822   8.933258   2.294225   # C_3
 125 1 5  -0.081963  19.399173  10.217303   2.875700   # H_
 126 1 3  -0.011923   7.755612  12.341578   5.363060   # C_3
 127 1 5   0.074867   8.684439  10.467571   5.608152   # H_
 128 1 5   0.043337   8.131738  12.432453   4.317689   # H_
 129 1 3  -0.081759   6.414226  13.049325   5.499061   # C_3
 130 1 5   0.029564   8.389872  12.877719   5.969995   # H_
 131 1 5   0.048893   5.587866  12.691001   4.862524   # H_
 132 1 5   0.042183   6.748744  13.938407   5.099958   # H_
 133 1 3  -0.069654   5.986970  13.226935   6.924284   # C_3
 134 1 3  -0.044881   6.202047  14.673065   7.368721   # C_3
 135 1 5   0.048534   6.417538  12.476338   7.556060   # H_
 136 1 5   0.043540   4.892126  13.072924   6.872740   # H_
 137 1 3   0.144193   1.022600   9.712835   1.309714   # C_3
 138 1 5   0.265840  20.344353   8.410573   1.698675   # H_
 139 1 5   0.198493   0.912267   8.304172   2.763710   # H_
 140 1 3  -0.167629   7.629960  15.032216   7.622715   # C_3
 141 1 5   0.041132   5.593869  14.980465   8.161340   # H_
 142 1 5   0.031453   5.833787  15.199062   6.561820   # H_
 143 1 5  -0.067851   1.563708   8.924149   0.716234   # H_
 144 1 5  -0.026618   1.638023  10.366346   1.806524   # H_
 145 1 5  -0.090583   0.411938  10.253115   0.666967   # H_
 146 1 5   0.066040   8.141260  14.689211   6.755783   # H_
 147 1 5   0.064863   8.073984  14.523401   8.454043   # H_
 148 1 5   0.070458   7.721663  16.137618   7.685645   # H_
 149 1 3   0.531970  13.529781   0.000000   7.170619   # C_3
 150 1 2  -0.701259  13.878790   0.000000   8.377659   # O_3
 151 1 2  -0.691251  12.322741   0.000000   6.821610   # O_3
 152 1 3  -0.167020  14.593782   0.000000   6.106618   # C_3
 153 1 3   0.001272  14.166733   0.000000   4.812636   # C_3
 154 1 4  -0.061113  12.804025  20.610146   4.444790   # N_3
 155 1 5   0.005493  14.930785   0.000000   2.701609   # H_
 156 1 3  -0.024436  15.162629   0.000000   3.817568   # C_3
 157 1 3  -0.191698  16.456611   0.000000   4.243582   # C_3
 158 1 3   0.069278  16.882832   0.000000   5.537564   # C_3
 159 1 3  -0.030974  15.887764   0.000000   6.533667   # C_3
 160 1 5   0.017265  16.119815   0.000000   7.649626   # H_
 161 1 4  -0.144571  18.078901   0.914751   5.792386   # N_3
 162 1 2  -0.657596  18.727652   0.000000   3.528590   # O_3
 163 1 3   0.529619  17.520612   0.000000   3.179581   # C_3
 164 1 2  -0.707609  17.171603   0.000000   1.972541   # O_3
 165 1 5   0.116057  12.887448  20.399209   3.473320   # H_
 166 1 3  -0.051353  12.173284   1.111818   4.225987   # C_3
 167 1 5   0.019995  12.623932   1.736143   3.382031   # H_
 168 1 5   0.051176  12.187360   1.616080   5.199112   # H_
 169 1 3  -0.228438  10.796087   0.688909   3.937009   # C_3
 170 1 5   0.030434  10.328258   0.818080   4.911377   # H_
 171 1 3   0.095041  10.511249  20.022048   3.725451   # C_3
 172 1 5   0.071841  10.276093   1.246164   3.280185   # H_
 173 1 5   0.032785  10.931260  19.700364   4.690918   # H_
 174 1 3  -0.179301  11.030415  19.354253   2.443682   # C_3
 175 1 5   0.032663   9.438347  19.931587   3.845099   # H_
 176 1 3  -0.023932  17.850576   2.229433   5.036407   # C_3
 177 1 5   0.087120  19.011247   0.506332   5.587245   # H_
 178 1 5   0.052604  17.950559   2.176647   3.955846   # H_
 179 1 3  -0.083851  16.524301   2.883152   5.379620   # C_3
 180 1 5   0.057869  18.541555   2.986240   5.290608   # H_
 181 1 5   0.055951  15.782399   2.256965   4.969752   # H_
 182 1 5   0.041485  16.535273   3.712410   4.777652   # H_
 183 1 3  -0.079725  16.367392   3.108579   6.866323   # C_3
 184 1 3  -0.028441  16.381262   4.596938   7.307241   # C_3
 185 1 5   0.054372  17.227287   2.725208   7.331254   # H_
 186 1 5   0.048628  15.495905   2.516962   7.201255   # H_
 187 1 3   0.044710  12.056534  19.711542   1.379061   # C_3
 188 1 5   0.095701  10.176317  19.668278   1.962812   # H_
 189 1 5   0.075986  10.963760  18.343245   2.562710   # H_
 190 1 3  -0.187683  17.782886   5.111964   7.449453   # C_3
 191 1 5   0.035655  15.827526   4.735838   8.195909   # H_
 192 1 5   0.024945  15.854436   5.172202   6.539049   # H_
 193 1 5  -0.062137  12.181564   0.063550   1.628707   # H_
 194 1 5  -0.014511  11.690344  19.658756   0.393722   # H_
 195 1 5   0.011773  13.068784  19.234398   1.427707   # H_
 196 1 5   0.090619  18.372847   4.748465   6.616676   # H_
 197 1 5   0.086946  18.297705   4.870390   8.383041   # H_
 198 1 5   0.081177  17.725132   6.182381   7.397702   # H_
 199 1 3   0.534525  13.529781  10.350200  17.520819   # C_3
 200 1 2  -0.715118  13.878790  10.350200  18.727859   # O_3
 201 1 2  -0.727524  12.322741  10.350200  17.171810   # O_3
 202 1 3  -0.173263  14.593782  10.350200  16.456818   # C_3
 203 1 3   0.104801  14.166733  10.350200  15.162836   # C_3
 204 1 4  -0.147142  12.826175  10.284580  14.782984   # N_3
 205 1 5   0.033180  14.930785  10.350200  13.051809   # H_
 206 1 3  -0.022322  15.162629  10.350200  14.167768   # C_3
 207 1 3  -0.157535  16.456611  10.350200  14.593782   # C_3
 208 1 3   0.090431  16.882832  10.350200  15.887764   # C_3
 209 1 3  -0.002190  15.887764  10.350200  16.883867   # C_3
 210 1 5   0.037473  16.119815  10.350200  17.999826   # H_
 211 1 4  -0.148819  18.049714  11.292482  16.146726   # N_3
 212 1 2  -0.638203  18.727652  10.350200  13.878790   # O_3
 213 1 3   0.538600  17.520612  10.350200  13.529781   # C_3
 214 1 2  -0.669010  17.171603  10.350200  12.322741   # O_3
 215 1 5   0.071852  12.970043  10.137814  13.791434   # H_
 216 1 3  -0.026470  12.186118  11.467194  14.671201   # C_3
 217 1 5   0.022878  12.499109  12.095865  13.796610   # H_
 218 1 5   0.041398  12.226691  12.107457  15.529854   # H_
 219 1 3  -0.014123  10.845354  10.777249  14.508910   # C_3
 220 1 5  -0.035065  10.519529  10.479992  15.526956   # H_
 221 1 3  -0.140724  10.717011   9.648042  13.449464   # C_3
 222 1 5   0.029249  10.197431  11.382736  14.020381   # H_
 223 1 5   0.062286  11.258948   8.781731  13.768664   # H_
 224 1 3   0.029773  11.177802  10.001812  12.115944   # C_3
 225 1 5   0.055739   9.716975   9.414128  13.484448   # H_
 226 1 3  -0.034255  17.986992  12.561003  15.331751   # C_3
 227 1 5   0.099486  18.933828  10.825895  15.976776   # H_
 228 1 5   0.068054  18.514231  12.455638  14.389055   # H_
 229 1 3  -0.076005  16.686799  13.262746  14.805961   # C_3
 230 1 5   0.058853  18.572192  13.252603  15.856713   # H_
 231 1 5   0.045227  16.850747  13.410547  13.754795   # H_
 232 1 5   0.049642  16.815349  14.133819  15.222246   # H_
 233 1 3  -0.095844  15.172151  13.435802  14.987297   # C_3
 234 1 3  -0.018350  14.580534  14.070269  16.193716   # C_3
 235 1 5   0.061207  14.675756  12.543200  14.951485   # H_
 236 1 5   0.039490  14.808031  14.041081  14.111670   # H_
 237 1 3  -0.248060  12.163969   9.109418  11.503419   # C_3
 238 1 5   0.008532  11.699038  10.963139  12.155689   # H_
 239 1 5   0.004348  10.402365  10.095585  11.371351   # H_
 240 1 3  -0.183543  14.171701  13.226107  17.347763   # C_3
 241 1 5   0.023236  13.661850  14.459436  15.837255   # H_
 242 1 5   0.023276  15.233217  14.826247  16.600272   # H_
 243 1 5   0.083595  12.747927   9.542263  10.764829   # H_
 244 1 5   0.082080  11.556205   8.399394  11.019858   # H_
 245 1 5   0.081303  12.764902   8.657528  12.271197   # H_
 246 1 5   0.068886  14.166733  13.830972  18.247196   # H_
 247 1 5   0.075440  14.949001  12.485446  17.488526   # H_
 248 1 5   0.031838  13.179324  12.792640  17.240121   # H_
 249 1 3   0.520236  17.520819   0.000000  17.520819   # C_3
 250 1 2  -0.756262  17.171810   0.000000  18.727859   # O_3
 251 1 2  -0.760924  18.727859   0.000000  17.171810   # O_3
 252 1 3  -0.179551  16.456818   0.000000  16.456818   # C_3
 253 1 3   0.041891  16.883867   0.000000  15.162836   # C_3
 254 1 4  -0.154241  17.804000   1.210352  14.956039   # N_3
 255 1 5   0.010657  16.119815   0.000000  13.051809   # H_
 256 1 3  -0.021072  15.887971   0.000000  14.167768   # C_3
 257 1 3  -0.185950  14.593989   0.000000  14.593782   # C_3
 258 1 3   0.044990  14.167768   0.000000  15.887764   # C_3
 259 1 3  -0.030750  15.162836   0.000000  16.883867   # C_3
 260 1 5   0.002046  14.930785   0.000000  17.999826   # H_
 261 1 4  -0.130879  13.118050   1.039367  16.175293   # N_3
 262 1 2  -0.795340  12.322948   0.000000  13.878790   # O_3
 263 1 3   0.533893  13.529988   0.000000  13.529781   # C_3
 264 1 2  -0.788422  13.878997   0.000000  12.322741   # O_3
 265 1 5   0.073541  18.782715   1.047026  15.177326   # H_
 266 1 3  -0.017140  17.142829   2.368540  15.722161   # C_3
 267 1 5   0.028201  16.937067   2.155326  16.758423   # H_
 268 1 5   0.034745  16.172809   2.606180  15.216243   # H_
 269 1 3  -0.090791  17.998791   3.544736  16.058956   # C_3
 270 1 5   0.050801  18.136862   3.773476  17.148625   # H_
 271 1 3  -0.079693  17.711469   4.789866  15.294698   # C_3
 272 1 5   0.088042  18.815215   3.019774  15.775154   # H_
 273 1 5   0.039732  16.927545   5.226851  15.894388   # H_
 274 1 3   0.010270  17.168705   4.649103  13.881688   # C_3
 275 1 5   0.080985  18.513196   5.519348  15.303599   # H_
 276 1 3  -0.193792  11.747891   0.926343  16.304877   # C_3
 277 1 5   0.065590  13.445531   1.911475  15.665028   # H_
 278 1 5   0.064633  11.478786   1.490843  17.185265   # H_
 279 1 3   0.128180  11.015304  20.388445  16.059784   # C_3
 280 1 5   0.079742  11.574422   1.464760  15.448502   # H_
 281 1 5  -0.076535  10.359929  20.537281  15.218934   # H_
 282 1 5   0.034517  11.684341  19.580508  15.806411   # H_
 283 1 3  -0.081314  10.114836  20.143145  17.247573   # C_3
 284 1 3   0.182871  10.817201  19.894740  18.539071   # C_3
 285 1 5   0.056696   9.328428  19.409316  17.040569   # H_
 286 1 5  -0.011478   9.659635   0.394343  17.491217   # H_
 287 1 3  -0.227158  17.659718   3.467524  13.179531   # C_3
 288 1 5   0.032137  17.542968   5.507548  13.268128   # H_
 289 1 5   0.014472  16.063924   4.647033  13.939442   # H_
 290 1 3  -0.300617  12.051566  19.176023  18.325236   # C_3
 291 1 5   0.002162  10.117113  19.321132  19.086804   # H_
 292 1 5  -0.080197  11.001435   0.078662  19.071693   # H_
 293 1 5   0.100579  18.606141   3.136318  13.543858   # H_
 294 1 5   0.092009  17.739001   3.667490  12.179908   # H_
 295 1 5   0.085483  16.942035   2.665384  13.327332   # H_
 296 1 5   0.107567  11.646045  18.330618  17.867550   # H_
 297 1 5   0.107908  12.534920  18.890357  19.277040   # H_
 298 1 5   0.133730  12.784153  19.631431  17.675865   # H_
 299 1 3   0.532490  17.520819  10.350200   7.170619   # C_3
 300 1 2  -0.746043  17.171810  10.350200   8.377659   # O_3
 301 1 2  -0.715292  18.727859  10.350200   6.821610   # O_3
 302 1 3  -0.176949  16.456818  10.350200   6.106618   # C_3
 303 1 3   0.098315  16.883867  10.350200   4.812636   # C_3
 304 1 4  -0.169550  17.956148  11.273231   4.386622   # N_3
 305 1 5   0.036110  16.119815  10.350200   2.701609   # H_
 306 1 3  -0.005698  15.887971  10.350200   3.817568   # C_3
 307 1 3  -0.179089  14.593989  10.350200   4.243582   # C_3
 308 1 3   0.099918  14.167768  10.350200   5.537564   # C_3
 309 1 3  -0.014375  15.162836  10.350200   6.533667   # C_3
 310 1 5   0.041552  14.930785  10.350200   7.649626   # H_
 311 1 4  -0.156692  13.043736  11.298278   5.818054   # N_3
 312 1 2  -0.662952  12.322948  10.350200   3.528590   # O_3
 313 1 3   0.551194  13.529988  10.350200   3.179581   # C_3
 314 1 2  -0.676353  13.878997  10.350200   1.972541   # O_3
 315 1 5   0.106439  18.727031  11.184012   4.968096   # H_
 316 1 3  -0.013569  17.369706  12.635938   4.261384   # C_3
 317 1 5   0.033285  16.272998  12.673613   4.258072   # H_
 318 1 5   0.030702  17.640467  13.029453   3.276045   # H_
 319 1 3  -0.088825  17.838156  13.380325   5.528249   # C_3
 320 1 5   0.038778  17.307397  12.852671   6.244897   # H_
 321 1 3  -0.082082  17.693874  14.788780   6.047001   # C_3
 322 1 5   0.075337  18.830740  13.101490   5.731941   # H_
 323 1 5   0.040237  16.818868  14.972185   6.611708   # H_
 324 1 3  -0.005338  17.629496  15.828768   5.012188   # C_3
 325 1 5   0.063997  18.462687  14.989367   6.784349   # H_
 326 1 3   0.014141  11.819307  10.755514   6.178448   # C_3
 327 1 5   0.087390  12.902973  12.058397   5.110929   # H_
 328 1 5   0.017946  11.530537  11.321049   7.029442   # H_
 329 1 3  -0.080730  11.790534   9.294687   6.516693   # C_3
 330 1 5  -0.008727  11.081959  10.964381   5.370926   # H_
 331 1 5   0.030073  10.665260   9.344368   6.509655   # H_
 332 1 5   0.055042  12.153826   8.658563   5.700476   # H_
 333 1 3  -0.078382  12.009751   8.727703   7.901343   # C_3
 334 1 3  -0.043860  13.378255   8.195081   8.491304   # C_3
 335 1 5   0.047403  11.339265   7.924734   7.817920   # H_
 336 1 5   0.032779  11.484168   9.384112   8.587768   # H_
 337 1 3  -0.184188  17.921992  15.581191   3.566265   # C_3
 338 1 5   0.046750  17.931721  16.819282   5.425161   # H_
 339 1 5   0.034026  16.631322  15.799580   4.766474   # H_
 340 1 3  -0.166252  14.646982   7.799911   7.614435   # C_3
 341 1 5   0.034410  13.022001   7.378451   9.022683   # H_
 342 1 5   0.032173  13.852501   8.840313   9.213334   # H_
 343 1 5   0.064730  17.152558  15.182708   2.878805   # H_
 344 1 5   0.098588  18.608418  14.771391   3.579720   # H_
 345 1 5   0.093028  18.347593  16.512709   3.128658   # H_
 346 1 5   0.058353  14.899113   6.750607   7.733255   # H_
 347 1 5   0.070246  15.575602   8.328392   7.960132   # H_
 348 1 5   0.062821  14.499181   8.003189   6.577345   # H_
 349 1 3   0.537666   7.170619   0.000000   7.170619   # C_3
 350 1 2  -0.703972   6.821610   0.000000   8.377659   # O_3
 351 1 2  -0.701086   8.377659   0.000000   6.821610   # O_3
 352 1 3  -0.189614   6.106618   0.000000   6.106618   # C_3
 353 1 3   0.055593   6.533667   0.000000   4.812636   # C_3
 354 1 4  -0.173874   7.875467   0.636744   4.388485   # N_3
 355 1 5   0.007672   5.769615   0.000000   2.701609   # H_
 356 1 3  -0.021778   5.537564   0.000000   3.817568   # C_3
 357 1 3  -0.181168   4.243582   0.000000   4.243582   # C_3
 358 1 3   0.048191   3.817568   0.000000   5.537564   # C_3
 359 1 3  -0.020127   4.812636   0.000000   6.533667   # C_3
 360 1 5   0.012604   4.580585   0.000000   7.649626   # H_
 361 1 4  -0.132740   2.651514   0.956565   5.868356   # N_3
 362 1 2  -0.693180   1.972748   0.000000   3.528590   # O_3
 363 1 3   0.539312   3.179581   0.000000   3.179581   # C_3
 364 1 2  -0.707342   3.528590   0.000000   1.972541   # O_3
 365 1 5   0.094045   8.404362   1.061103   5.147361   # H_
 366 1 3  -0.048232   7.680676   1.999038   3.852758   # C_3
 367 1 5   0.036931   7.116591   1.961984   2.963883   # H_
 368 1 5   0.027945   8.591908   2.487153   3.615946   # H_
 369 1 3  -0.047598   6.757439   2.899091   4.736666   # C_3
 370 1 5   0.031427   5.829854   3.290743   4.173822   # H_
 371 1 3  -0.107445   7.537844   3.934525   5.351053   # C_3
 372 1 5   0.046518   6.419401   2.366470   5.599458   # H_
 373 1 5   0.052095   7.271015   4.446446   6.197286   # H_
 374 1 3  -0.003347   7.479469   5.163922   4.413946   # C_3
 375 1 5   0.060774   8.312453   3.353051   5.813293   # H_
 376 1 3  -0.168538   1.393137   0.421460   6.297683   # C_3
 377 1 5   0.090436   2.548219   1.761811   5.222918   # H_
 378 1 5   0.045652   1.174955   0.893429   7.215952   # H_
 379 1 3   0.140156   1.588342  19.726860   6.524352   # C_3
 380 1 5   0.007224   0.570917   0.616872   5.603805   # H_
 381 1 5   0.027246   1.561017  19.264206   5.517485   # H_
 382 1 5   0.032319   2.582582  19.568088   6.937118   # H_
 383 1 3  -0.351177   0.779370  19.105020   7.621887   # C_3
 384 1 3   0.143598   1.254858  19.107090   9.053941   # C_3
 385 1 5   0.126186   1.093602  18.203932   7.387352   # H_
 386 1 5   0.190483  20.384098  19.111437   7.513831   # H_
 387 1 3  -0.193946   7.557923   5.014258   2.942769   # C_3
 388 1 5   0.022632   8.006915   6.072462   4.858177   # H_
 389 1 5   0.023942   6.464528   5.363474   4.463420   # H_
 390 1 3  -0.349174   2.712166  18.916440   9.341263   # C_3
 391 1 5  -0.044222   0.766950  18.225460   9.448284   # H_
 392 1 5  -0.008506   0.892808  19.966985   9.590702   # H_
 393 1 5   0.082367   8.170034   4.271735   2.617359   # H_
 394 1 5   0.055339   7.927425   6.007463   2.568092   # H_
 395 1 5   0.072286   6.597631   4.753433   2.538904   # H_
 396 1 5   0.107551   2.714443  18.149490  10.085442   # H_
 397 1 5   0.150652   3.067385  19.757290   9.845731   # H_
 398 1 5   0.137062   3.327589  18.701983   8.582179   # H_
 399 1 3   0.539490   7.170619  10.350200  17.520819   # C_3
 400 1 2  -0.634196   6.821610  10.350200  18.727859   # O_3
 401 1 2  -0.658907   8.377659  10.350200  17.171810   # O_3
 402 1 3  -0.172197   6.106618  10.350200  16.456818   # C_3
 403 1 3   0.094955   6.533667  10.350200  15.162836   # C_3
 404 1 4  -0.156257   7.905483  10.682855  14.784847   # N_3
 405 1 5   0.036656   5.769615  10.350200  13.051809   # H_
 406 1 3  -0.013427   5.537564  10.350200  14.167768   # C_3
 407 1 3  -0.177220   4.243582  10.350200  14.593782   # C_3
 408 1 3   0.094317   3.817568  10.350200  15.887764   # C_3
 409 1 3  -0.010950   4.812636  10.350200  16.883867   # C_3
 410 1 5   0.032837   4.580585  10.350200  17.999826   # H_
 411 1 4  -0.172997   2.759570  11.358516  16.183159   # N_3
 412 1 2  -0.750226   1.972748  10.350200  13.878790   # O_3
 413 1 3   0.541075   3.179581  10.350200  13.529781   # C_3
 414 1 2  -0.753467   3.528590  10.350200  12.322741   # O_3
 415 1 5   0.087603   8.564583   9.972832  15.123298   # H_
 416 1 3  -0.022311   7.937154  12.146581  14.695421   # C_3
 417 1 5   0.036035   7.244519  12.277407  13.918121   # H_
 418 1 5   0.031339   8.748817  12.505733  14.252639   # H_
 419 1 3  -0.066101   7.557716  12.986396  15.986712   # C_3
 420 1 5   0.051078   6.601151  12.629935  16.328476   # H_
 421 1 3  -0.090534   7.188628  14.419485  15.675999   # C_3
 422 1 5   0.058424   8.178728  12.849980  16.863581   # H_
 423 1 5   0.042073   6.834858  14.839289  16.630701   # H_
 424 1 3   0.005609   6.156092  14.374151  14.508910   # C_3
 425 1 5   0.054322   8.041898  15.030146  15.460301   # H_
 426 1 3   0.117043   1.390239  11.197467  16.330753   # C_3
 427 1 5   0.072165   2.974233  12.242010  15.639152   # H_
 428 1 5  -0.019540   1.057376  11.791362  17.194787   # H_
 429 1 3  -0.384294   0.676696   9.941367  16.227872   # C_3
 430 1 5  -0.012595   1.079940  11.651013  15.477068   # H_
 431 1 5   0.099361  20.657550   9.992083  15.385986   # H_
 432 1 5   0.125090   1.436608   9.180420  15.964148   # H_
 433 1 3   0.293995  20.486772   9.679921  17.400135   # C_3
 434 1 3  -0.383424   0.374056   8.830170  18.410522   # C_3
 435 1 5  -0.026740  19.581750   9.139020  17.014901   # H_
 436 1 5  -0.014826  20.121824  10.616200  17.866515   # H_
 437 1 3  -0.225663   7.004394  14.729163  13.413238   # C_3
 438 1 5   0.018205   5.397008  15.076929  14.598336   # H_
 439 1 5   0.017354   5.638168  13.373493  14.382845   # H_
 440 1 3  -0.008431   1.696191   8.283679  18.421286   # C_3
 441 1 5   0.171122  20.481597   7.910037  18.287561   # H_
 442 1 5   0.086188   0.173883   9.372313  19.332518   # H_
 443 1 5   0.074760   7.978141  14.220554  13.398334   # H_
 444 1 5   0.073838   7.264184  15.781157  13.384672   # H_
 445 1 5   0.094843   6.479225  14.502907  12.598056   # H_
 446 1 5   0.030271   1.768642   7.777968  17.520198   # H_
 447 1 5   0.024406   1.772782   7.567238  19.238745   # H_
 448 1 5   0.019559   2.545942   8.859564  18.515887   # H_
 449 1 3   0.528089  17.520819   3.179581   0.000000   # C_3
 450 1 2  -0.745774  18.727859   3.528590   0.000000   # O_3
 451 1 2  -0.777339  17.171810   1.972541   0.000000   # O_3
 452 1 3  -0.174917  16.456818   4.243582   0.000000   # C_3
 453 1 3   0.037451  15.162836   3.816533   0.000000   # C_3
 454 1 4  -0.158911  14.779879   2.991001   1.224636   # N_3
 455 1 5  -0.000509  13.051809   4.580585   0.000000   # H_
 456 1 3  -0.013007  14.167768   4.812636   0.000000   # C_3
 457 1 3  -0.209114  14.593782   6.106618   0.000000   # C_3
 458 1 3   0.085065  15.887764   6.532632   0.000000   # C_3
 459 1 3  -0.033364  16.883867   5.537564   0.000000   # C_3
 460 1 5   0.021148  17.999826   5.769615   0.000000   # H_
 461 1 4  -0.206083  16.276725   7.872155   0.482319   # N_3
 462 1 2  -0.712827  13.878790   8.377452   0.000000   # O_3
 463 1 3   0.548976  13.529781   7.170619   0.000000   # C_3
 464 1 2  -0.712168  12.322741   6.821610   0.000000   # O_3
 465 1 5   0.076248  14.978602   3.704337   1.947287   # H_
 466 1 3   0.051879  15.433804   1.965503   1.743595   # C_3
 467 1 5   0.014605  14.886900   1.939213   2.693950   # H_
 468 1 5   0.030008  16.490146   2.186169   2.038989   # H_
 469 1 3  -0.200666  14.871995   0.879353   0.776058   # C_3
 470 1 5  -0.009539  15.424489   0.028981   0.906678   # H_
 471 1 3   0.049646  14.748414   0.841057  20.080423   # C_3
 472 1 5   0.042412  13.895143   0.705884   1.156117   # H_
 473 1 5   0.038648  15.401719   1.482356  19.500812   # H_
 474 1 3  -0.371261  13.334370   0.847888  19.590238   # C_3
 475 1 5   0.100779  14.951278  20.430674  19.821668   # H_
 476 1 3  -0.010455  16.029769   7.990975   1.903402   # C_3
 477 1 5   0.159481  15.955247   8.670156  20.601659   # H_
 478 1 5   0.040586  15.123919   8.578867   2.007318   # H_
 479 1 3  -0.072939  15.710983   6.783728   2.649237   # C_3
 480 1 5   0.023718  16.837498   8.450110   2.383651   # H_
 481 1 5   0.052722  14.866199   6.241171   2.277458   # H_
 482 1 5   0.042615  15.407722   7.208914   3.580548   # H_
 483 1 3  -0.095055  16.932720   5.901891   2.956638   # C_3
 484 1 3  -0.022118  17.483558   6.026093   4.299887   # C_3
 485 1 5   0.063920  17.685594   5.992973   2.303748   # H_
 486 1 5   0.048064  16.661545   4.866250   2.835955   # H_
 487 1 3   0.176291  12.538646   1.913131  19.929517   # C_3
 488 1 5   0.225477  12.905250  20.692741  19.979198   # H_