 (written by mofun)

1400 atoms
0 bonds
0 angles
0 dihedrals
0 impropers

5 atom types
   0.000000  26.896000 xlo xhi
   0.000000  26.896000 ylo yhi
   0.000000  26.896000 zlo zhi

Masses

 1 91.2240   # Zr3+4
 2 15.9994   # O_3
 3 12.0107   # C_3
 4 1.0079   # H_
 5 14.0067   # N_3

Pair Coeffs

 1   0.069000   2.783168 # Zr3+4
 2   0.060000   3.118146 # O_3
 3   0.105000   3.430851 # C_3
 4   0.044000   2.571134 # H_
 5   0.069000   3.260689 # N_3

Atoms

 1 1 1   3.191710   2.475508   0.000000   0.000000   # Zr3+4
 2 1 1   3.191290  24.420492   0.000000   0.000000   # Zr3+4
 3 1 1   3.192190   0.000000   2.475508   0.000000   # Zr3+4
 4 1 1   3.191720   0.000000  24.420492   0.000000   # Zr3+4
 5 1 1   3.193190   0.000000   0.000000   2.475508   # Zr3+4
 6 1 1   3.192630   0.000000   0.000000  24.420492   # Zr3+4
 7 1 1   3.214750   2.475508  13.448000  13.448000   # Zr3+4
 8 1 1   3.213840  24.420492  13.448000  13.448000   # Zr3+4
 9 1 1   3.204060   0.000000  15.923508  13.448000   # Zr3+4
 10 1 1   3.204030   0.000000  10.972492  13.448000   # Zr3+4
 11 1 1   3.204110   0.000000  13.448000  15.923508   # Zr3+4
 12 1 1   3.204070   0.000000  13.448000  10.972492   # Zr3+4
 13 1 1   3.203560  15.923508   0.000000  13.448000   # Zr3+4
 14 1 1   3.203530  10.972492   0.000000  13.448000   # Zr3+4
 15 1 1   3.214770  13.448000   2.475508  13.448000   # Zr3+4
 16 1 1   3.213820  13.448000  24.420492  13.448000   # Zr3+4
 17 1 1   3.203560  13.448000   0.000000  15.923508   # Zr3+4
 18 1 1   3.203530  13.448000   0.000000  10.972492   # Zr3+4
 19 1 1   3.202560  15.923508  13.448000   0.000000   # Zr3+4
 20 1 1   3.202520  10.972492  13.448000   0.000000   # Zr3+4
 21 1 1   3.202540  13.448000  15.923508   0.000000   # Zr3+4
 22 1 1   3.202510  13.448000  10.972492   0.000000   # Zr3+4
 23 1 1   3.214760  13.448000  13.448000   2.475508   # Zr3+4
 24 1 1   3.213720  13.448000  13.448000  24.420492   # Zr3+4
 25 1 2  -1.315200   1.221078   1.221078   1.221078   # O_3
 26 1 2  -1.163830  25.674922  25.674922   1.221078   # O_3
 27 1 2  -1.156900  25.674922   1.221078  25.674922   # O_3
 28 1 2  -1.153570   1.221078  25.674922  25.674922   # O_3
 29 1 2  -1.228850   1.221078   1.221078  25.674922   # O_3
 30 1 2  -1.084540  25.674922  25.674922  25.674922   # O_3
 31 1 2  -1.235690   1.221078  25.674922   1.221078   # O_3
 32 1 2  -1.239290  25.674922   1.221078   1.221078   # O_3
 33 1 2  -1.267870   1.221078  14.669078  14.669078   # O_3
 34 1 2  -1.193150  25.674922  12.226922  14.669078   # O_3
 35 1 2  -1.193140  25.674922  14.669078  12.226922   # O_3
 36 1 2  -1.267870   1.221078  12.226922  12.226922   # O_3
 37 1 2  -1.267850   1.221078  14.669078  12.226922   # O_3
 38 1 2  -1.192880  25.674922  12.226922  12.226922   # O_3
 39 1 2  -1.267870   1.221078  12.226922  14.669078   # O_3
 40 1 2  -1.193410  25.674922  14.669078  14.669078   # O_3
 41 1 2  -1.268890  14.669078   1.221078  14.669078   # O_3
 42 1 2  -1.190720  12.226922  25.674922  14.669078   # O_3
 43 1 2  -1.268900  12.226922   1.221078  12.226922   # O_3
 44 1 2  -1.190710  14.669078  25.674922  12.226922   # O_3
 45 1 2  -1.268850  14.669078   1.221078  12.226922   # O_3
 46 1 2  -1.190380  12.226922  25.674922  12.226922   # O_3
 47 1 2  -1.190920  14.669078  25.674922  14.669078   # O_3
 48 1 2  -1.268860  12.226922   1.221078  14.669078   # O_3
 49 1 2  -1.270850  14.669078  14.669078   1.221078   # O_3
 50 1 2  -1.270860  12.226922  12.226922   1.221078   # O_3
 51 1 2  -1.185490  12.226922  14.669078  25.674922   # O_3
 52 1 2  -1.185490  14.669078  12.226922  25.674922   # O_3
 53 1 2  -1.187140  14.669078  14.669078  25.674922   # O_3
 54 1 2  -1.186590  12.226922  12.226922  25.674922   # O_3
 55 1 2  -1.271610  14.669078  12.226922   1.221078   # O_3
 56 1 2  -1.271610  12.226922  14.669078   1.221078   # O_3
 57 1 2  -0.674841   3.566410   0.000000   1.933822   # O_3
 58 1 3   0.490727   3.152211   0.000000   3.152211   # C_3
 59 1 2  -0.673324   1.933822   0.000000   3.566410   # O_3
 60 1 3  -0.173959   4.209224   0.000000   4.209224   # C_3
 61 1 3   0.073346   5.535197   0.000000   3.891851   # C_3
 62 1 3   0.037151   3.891851   0.000000   5.535197   # C_3
 63 1 3  -0.135644   6.508832   0.000000   4.827832   # C_3
 64 1 4  -0.005709   5.779950   0.000000   2.996214   # H_
 65 1 3  -0.061086   4.827832   0.000000   6.508832   # C_3
 66 1 4   0.015193   2.996214   0.000000   5.779950   # H_
 67 1 3   0.021059   6.204907   0.000000   6.204907   # C_3
 68 1 3   0.020586   7.243093   0.000000   7.243093   # C_3
 69 1 4   0.054997   7.399090   0.000000   4.558872   # H_
 70 1 3  -0.063526   8.620168   0.000000   6.939168   # C_3
 71 1 5  -0.033272   4.251451  26.673839   7.918451   # N_3
 72 1 3  -0.132584   6.939168   0.000000   8.620168   # C_3
 73 1 3   0.030597   9.556149   0.000000   7.912803   # C_3
 74 1 5  -0.033380   9.169922  26.669536   5.544879   # N_3
 75 1 3   0.068201   7.912803   0.000000   9.556149   # C_3
 76 1 4   0.055751   6.048910   0.000000   8.889128   # H_
 77 1 3  -0.168921   9.238776   0.000000   9.238776   # C_3
 78 1 3   0.483577  10.295789   0.000000  10.295789   # C_3
 79 1 4   0.014409  10.451786   0.000000   7.668050   # H_
 80 1 4   0.001289   7.668050   0.000000  10.451786   # H_
 81 1 2  -0.667159  11.514178   0.000000   9.881590   # O_3
 82 1 2  -0.666954   9.881590   0.000000  11.514178   # O_3
 83 1 3   0.063009  11.831281  26.234358   3.946719   # C_3
 84 1 3   0.030565  10.097565  25.504132   5.451550   # C_3
 85 1 3  -0.025074   1.891327   2.327849   9.161584   # C_3
 86 1 3  -0.155222   2.974967   0.463956   8.174770   # C_3
 87 1 4   0.053653   9.898804  24.812367   6.297160   # H_
 88 1 3   0.014812  11.565818  25.989067   5.421427   # C_3
 89 1 3  -0.068965   9.932693  24.724148   4.167804   # C_3
 90 1 3  -0.100899  10.660499  25.610909   3.215955   # C_3
 91 1 4   0.041461  11.010684  25.143188   2.305794   # H_
 92 1 4   0.090482   9.933500  26.405955   2.981960   # H_
 93 1 4   0.056081   8.884556  24.537759   3.845859   # H_
 94 1 4   0.037741  10.473571  23.757506   4.287760   # H_
 95 1 3   0.168238   2.387289  26.847318   9.403648   # C_3
 96 1 4   0.027350   3.130694  26.645867  10.167226   # H_
 97 1 4  -0.006823   1.819783  25.897889   9.170191   # H_
 98 1 3  -0.211064   1.494073   1.058627   9.853619   # C_3
 99 1 4   0.001311   1.059433   2.724027   8.552659   # H_
 100 1 3  -0.051525   3.007242   1.995145   8.215114   # C_3
 101 1 4   0.023183   1.501335   1.163252  10.958775   # H_
 102 1 4  -0.005865   0.470949   0.877885   9.503433   # H_
 103 1 4   0.036298  12.263231  25.233289   5.806846   # H_
 104 1 4  -0.038819  11.719932   0.034158   5.968491   # H_
 105 1 4  -0.059776  11.857102   0.429529   3.687980   # H_
 106 1 4   0.036178   3.974691   2.434626   8.566914   # H_
 107 1 4   0.041212   2.846673   2.385944   7.189301   # H_
 108 1 4   0.020294   2.134736   0.186927   7.480316   # H_
 109 1 4   0.094057   4.143329  25.634309   8.035987   # H_
 110 1 4   0.006878   9.645444   0.667290   5.286140   # H_
 111 1 4   0.019585  12.789855  25.794878   3.623429   # H_
 112 1 4   0.019017   2.207893   3.051889   9.934576   # H_
 113 1 2  -0.668099  23.329590   0.000000   1.933822   # O_3
 114 1 3   0.474525  23.743789   0.000000   3.152211   # C_3
 115 1 2  -0.617146  24.962178   0.000000   3.566410   # O_3
 116 1 3  -0.138149  22.686776   0.000000   4.209224   # C_3
 117 1 3   0.049799  21.360803   0.000000   3.891851   # C_3
 118 1 3  -0.009833  23.004149   0.000000   5.535197   # C_3
 119 1 3  -0.119281  20.387168   0.000000   4.827832   # C_3
 120 1 4   0.000896  21.116050   0.000000   2.996214   # H_
 121 1 3   0.004429  22.068168   0.000000   6.508832   # C_3
 122 1 4   0.032572  23.899786   0.000000   5.779950   # H_
 123 1 3   0.007794  20.691093   0.000000   6.204907   # C_3
 124 1 3   0.013095  19.652907   0.000000   7.243093   # C_3
 125 1 4   0.058372  19.496910   0.000000   4.558872   # H_
 126 1 3  -0.000246  18.275832   0.000000   6.939168   # C_3
 127 1 5  -0.221153  22.644549   0.222161   7.918451   # N_3
 128 1 3  -0.128261  19.956832   0.000000   8.620168   # C_3
 129 1 3  -0.001280  17.339851   0.000000   7.912803   # C_3
 130 1 5  -0.215124  17.726078   0.226464   5.544879   # N_3
 131 1 3   0.058917  18.983197   0.000000   9.556149   # C_3
 132 1 4   0.064427  20.847090   0.000000   8.889128   # H_
 133 1 3  -0.154251  17.657224   0.000000   9.238776   # C_3
 134 1 3   0.478604  16.600211   0.000000  10.295789   # C_3
 135 1 4   0.018760  16.444214   0.000000   7.668050   # H_
 136 1 4  -0.000124  19.227950   0.000000  10.451786   # H_
 137 1 2  -0.667045  15.381822   0.000000   9.881590   # O_3
 138 1 2  -0.666708  17.014410   0.000000  11.514178   # O_3
 139 1 3  -0.162194  15.064719   0.661642   3.946719   # C_3
 140 1 3   0.079385  16.798435   1.391868   5.451550   # C_3
 141 1 3  -0.083910  25.004673  24.568151   9.161584   # C_3
 142 1 3   0.281948  23.921033  26.432044   8.174770   # C_3
 143 1 4   0.017562  16.997196   2.083633   6.297160   # H_
 144 1 3  -0.214873  15.330182   0.906664   5.421427   # C_3
 145 1 3  -0.121240  16.963307   2.171852   4.167804   # C_3
 146 1 3  -0.009099  16.235501   1.285091   3.215955   # C_3
 147 1 4  -0.003647  15.885316   1.752812   2.305794   # H_
 148 1 4  -0.021433  16.962500   0.490045   2.981960   # H_
 149 1 4   0.049740  18.011444   2.358241   3.845859   # H_
 150 1 4   0.052826  16.422429   3.138494   4.287760   # H_
 151 1 3  -0.377023  24.508711   0.048682   9.403648   # C_3
 152 1 4   0.074454  23.765306   0.250133  10.167226   # H_
 153 1 4   0.095337  25.076217   0.998111   9.170191   # H_
 154 1 3   0.110395  25.401927  25.837104   9.853619   # C_3
 155 1 4   0.083944  25.836567  24.171973   8.552659   # H_
 156 1 3  -0.139363  23.888758  24.900855   8.215114   # C_3
 157 1 4   0.030863  25.394665  25.732748  10.958775   # H_
 158 1 4   0.068825  26.424782  26.018115   9.503433   # H_
 159 1 4   0.064224  14.632769   1.662711   5.806846   # H_
 160 1 4   0.153319  15.176068  26.862111   5.968491   # H_
 161 1 4   0.110798  15.038898  26.466471   3.687980   # H_
 162 1 4   0.083352  22.921309  24.461374   8.566914   # H_
 163 1 4   0.095798  24.049327  24.510056   7.189301   # H_
 164 1 4   0.040727  24.761264  26.709073   7.480316   # H_
 165 1 4   0.081421  22.752671   1.261691   8.035987   # H_
 166 1 4   0.160302  17.250556  26.228710   5.286140   # H_
 167 1 4   0.032087  14.106145   1.100853   3.623429   # H_
 168 1 4   0.048103  24.688107  23.844111   9.934576   # H_
 169 1 2  -0.605171  23.329590   0.000000  24.962178   # O_3
 170 1 3   0.467657  23.743789   0.000000  23.743789   # C_3
 171 1 2  -0.610829  24.962178   0.000000  23.329590   # O_3
 172 1 3  -0.124093  22.686776   0.000000  22.686776   # C_3
 173 1 3   0.040550  21.360803   0.000000  23.004149   # C_3
 174 1 3   0.009866  23.004149   0.000000  21.360803   # C_3
 175 1 3  -0.101855  20.387168   0.000000  22.068168   # C_3
 176 1 4   0.030390  21.116050   0.000000  23.899786   # H_
 177 1 3  -0.037723  22.068168   0.000000  20.387168   # C_3
 178 1 4   0.042599  23.899786   0.000000  21.116050   # H_
 179 1 3   0.006551  20.691093   0.000000  20.691093   # C_3
 180 1 3   0.029338  19.652907   0.000000  19.652907   # C_3
 181 1 4   0.048762  19.496910   0.000000  22.337128   # H_
 182 1 3  -0.063832  18.275832   0.000000  19.956832   # C_3
 183 1 5  -0.039253  22.644549  26.673839  18.977818   # N_3
 184 1 3  -0.137181  19.956832   0.000000  18.275832   # C_3
 185 1 3   0.032469  17.339851   0.000000  18.983197   # C_3
 186 1 5  -0.035533  17.726078  26.669536  21.351121   # N_3
 187 1 3   0.072156  18.983197   0.000000  17.339851   # C_3
 188 1 4   0.058548  20.847090   0.000000  18.006872   # H_
 189 1 3  -0.170631  17.657224   0.000000  17.657224   # C_3
 190 1 3   0.484284  16.600211   0.000000  16.600211   # C_3
 191 1 4   0.014126  16.444214   0.000000  19.227950   # H_
 192 1 4   0.000247  19.227950   0.000000  16.444214   # H_
 193 1 2  -0.667163  15.381822   0.000000  17.014410   # O_3
 194 1 2  -0.666940  17.014410   0.000000  15.381822   # O_3
 195 1 3   0.061570  15.064719  26.234358  22.949281   # C_3
 196 1 3   0.031475  16.798435  25.504132  21.444450   # C_3
 197 1 3  -0.018176  25.004673   2.327849  17.734416   # C_3
 198 1 3  -0.153007  23.921033   0.463956  18.721230   # C_3
 199 1 4   0.054231  16.997196  24.812367  20.598840   # H_
 200 1 3   0.011077  15.330182  25.989067  21.474573   # C_3
 201 1 3  -0.069651  16.963307  24.724148  22.728196   # C_3
 202 1 3  -0.100499  16.235501  25.610909  23.680045   # C_3
 203 1 4   0.061759  15.885316  25.143188  24.590206   # H_
 204 1 4   0.095623  16.962500  26.405955  23.914040   # H_
 205 1 4   0.067301  18.011444  24.537759  23.050410   # H_
 206 1 4   0.042605  16.422429  23.757506  22.608240   # H_
 207 1 3   0.170842  24.508711  26.847318  17.492352   # C_3
 208 1 4   0.027350  23.765306  26.645867  16.728774   # H_
 209 1 4   0.022990  25.076217  25.897889  17.725809   # H_
 210 1 3  -0.215245  25.401927   1.058627  17.042381   # C_3
 211 1 4   0.060710  25.836567   2.724027  18.343341   # H_
 212 1 3  -0.051162  23.888758   1.995145  18.680886   # C_3
 213 1 4   0.058301  25.394665   1.163252  15.937225   # H_
 214 1 4   0.083642  26.424782   0.877885  17.392298   # H_
 215 1 4   0.036706  14.632769  25.233289  21.089154   # H_
 216 1 4  -0.037136  15.176068   0.034158  20.927509   # H_
 217 1 4  -0.055184  15.038898   0.429529  23.208020   # H_
 218 1 4   0.040181  22.921309   2.434626  18.329086   # H_
 219 1 4   0.060605  24.049327   2.385944  19.706699   # H_
 220 1 4   0.046696  24.761264   0.186927  19.415684   # H_
 221 1 4   0.099586  22.752671  25.634309  18.860013   # H_
 222 1 4   0.009041  17.250556   0.667290  21.609860   # H_
 223 1 4   0.024360  14.106145  25.794878  23.272571   # H_
 224 1 4   0.031699  24.688107   3.051889  16.961424   # H_
 225 1 2  -0.609458   3.566410   0.000000  24.962178   # O_3
 226 1 3   0.472339   3.152211   0.000000  23.743789   # C_3
 227 1 2  -0.666844   1.933822   0.000000  23.329590   # O_3
 228 1 3  -0.133159   4.209224   0.000000  22.686776   # C_3
 229 1 3   0.042475   5.535197   0.000000  23.004149   # C_3
 230 1 3  -0.010784   3.891851   0.000000  21.360803   # C_3
 231 1 3  -0.109535   6.508832   0.000000  22.068168   # C_3
 232 1 4   0.026063   5.779950   0.000000  23.899786   # H_
 233 1 3   0.002964   4.827832   0.000000  20.387168   # C_3
 234 1 4   0.016834   2.996214   0.000000  21.116050   # H_
 235 1 3   0.005454   6.204907   0.000000  20.691093   # C_3
 236 1 3   0.014401   7.243093   0.000000  19.652907   # C_3
 237 1 4   0.059061   7.399090   0.000000  22.337128   # H_
 238 1 3  -0.000308   8.620168   0.000000  19.956832   # C_3
 239 1 5  -0.222774   4.251451   0.222161  18.977818   # N_3
 240 1 3  -0.129371   6.939168   0.000000  18.275832   # C_3
 241 1 3  -0.001018   9.556149   0.000000  18.983197   # C_3
 242 1 5  -0.214025   9.169922   0.226464  21.351121   # N_3
 243 1 3   0.059490   7.912803   0.000000  17.339851   # C_3
 244 1 4   0.064528   6.048910   0.000000  18.006872   # H_
 245 1 3  -0.154602   9.238776   0.000000  17.657224   # C_3
 246 1 3   0.478705  10.295789   0.000000  16.600211   # C_3
 247 1 4   0.018886  10.451786   0.000000  19.227950   # H_
 248 1 4  -0.000558   7.668050   0.000000  16.444214   # H_
 249 1 2  -0.666994  11.514178   0.000000  17.014410   # O_3
 250 1 2  -0.666856   9.881590   0.000000  15.381822   # O_3
 251 1 3  -0.157766  11.831281   0.661642  22.949281   # C_3
 252 1 3   0.079495  10.097565   1.391868  21.444450   # C_3
 253 1 3  -0.091947   1.891327  24.568151  17.734416   # C_3
 254 1 3   0.291529   2.974967  26.432044  18.721230   # C_3
 255 1 4   0.018153   9.898804   2.083633  20.598840   # H_
 256 1 3  -0.215091  11.565818   0.906664  21.474573   # C_3
 257 1 3  -0.120491   9.932693   2.171852  22.728196   # C_3
 258 1 3  -0.011116  10.660499   1.285091  23.680045   # C_3
 259 1 4   0.018340  11.010684   1.752812  24.590206   # H_
 260 1 4  -0.013125   9.933500   0.490045  23.914040   # H_
 261 1 4   0.059976   8.884556   2.358241  23.050410   # H_
 262 1 4   0.056925  10.473571   3.138494  22.608240   # H_
 263 1 3  -0.395188   2.387289   0.048682  17.492352   # C_3
 264 1 4   0.075946   3.130694   0.250133  16.728774   # H_
 265 1 4   0.066722   1.819783   0.998111  17.725809   # H_
 266 1 3   0.123016   1.494073  25.837104  17.042381   # C_3
 267 1 4   0.026367   1.059433  24.171973  18.343341   # H_
 268 1 3  -0.143627   3.007242  24.900855  18.680886   # C_3
 269 1 4  -0.004709   1.501335  25.732748  15.937225   # H_
 270 1 4  -0.020736   0.470949  26.018115  17.392298   # H_
 271 1 4   0.064221  12.263231   1.662711  21.089154   # H_
 272 1 4   0.151936  11.719932  26.862111  20.927509   # H_
 273 1 4   0.111432  11.857102  26.466471  23.208020   # H_
 274 1 4   0.082224   3.974691  24.461374  18.329086   # H_
 275 1 4   0.080896   2.846673  24.510056  19.706699   # H_
 276 1 4   0.012968   2.134736  26.709073  19.415684   # H_
 277 1 4   0.077168   4.143329   1.261691  18.860013   # H_
 278 1 4   0.159481   9.645444  26.228710  21.609860   # H_
 279 1 4   0.036485  12.789855   1.100853  23.272571   # H_
 280 1 4   0.036319   2.207893  23.844111  16.961424   # H_
 281 1 2  -0.677607   1.933822   3.566410   0.000000   # O_3
 282 1 3   0.490993   3.152211   3.152211   0.000000   # C_3
 283 1 2  -0.677373   3.566410   1.933822   0.000000   # O_3
 284 1 3  -0.178150   4.209224   4.209224   0.000000   # C_3
 285 1 3   0.073890   3.891851   5.535197   0.000000   # C_3
 286 1 3   0.041032   5.535197   3.891851   0.000000   # C_3
 287 1 3  -0.138585   4.827832   6.508832   0.000000   # C_3
 288 1 4  -0.005953   2.996214   5.779950   0.000000   # H_
 289 1 3  -0.070328   6.508832   4.827832   0.000000   # C_3
 290 1 4   0.010919   5.779950   2.996214   0.000000   # H_
 291 1 3   0.019755   6.204907   6.204907   0.000000   # C_3
 292 1 3   0.016750   7.243093   7.243093   0.000000   # C_3
 293 1 4   0.052655   4.558872   7.399090   0.000000   # H_
 294 1 3  -0.075206   6.939168   8.620168   0.000000   # C_3
 295 1 5  -0.022324   7.907962   4.248761  26.660929   # N_3
 296 1 3  -0.139022   8.620168   6.939168   0.000000   # C_3
 297 1 3   0.026748   7.912803   9.556149   0.000000   # C_3
 298 1 5  -0.094727   5.649505   9.112365  26.222793   # N_3
 299 1 3   0.067421   9.556149   7.912803   0.000000   # C_3
 300 1 4   0.054883   8.889128   6.048910   0.000000   # H_
 301 1 3  -0.177833   9.238776   9.238776   0.000000   # C_3
 302 1 3   0.481730  10.295789  10.295789   0.000000   # C_3
 303 1 4   0.001099   7.668050  10.451786   0.000000   # H_
 304 1 4  -0.001467  10.451786   7.668050   0.000000   # H_
 305 1 2  -0.673820   9.881590  11.514178   0.000000   # O_3
 306 1 2  -0.671496  11.514178   9.881590   0.000000   # O_3
 307 1 3  -0.056565   5.115619   9.729897  22.595868   # C_3
 308 1 3   0.072383   5.785061   9.790144  24.914841   # C_3
 309 1 3  -0.019807   9.262176   2.001331   2.322470   # C_3
 310 1 3  -0.172021   8.181763   3.006166   0.493273   # C_3
 311 1 4   0.027575   5.770537  10.899604  25.026190   # H_
 312 1 3  -0.099440   4.680980   9.290416  24.046369   # C_3
 313 1 3  -0.096986   7.066117   9.504777  24.129746   # C_3
 314 1 3  -0.050142   6.676394   9.732587  22.688928   # C_3
 315 1 4   0.038852   7.046214  10.718594  22.377472   # H_
 316 1 4   0.038160   7.113454   8.954216  22.024328   # H_
 317 1 4   0.088212   7.375152   8.436737  24.259923   # H_
 318 1 4   0.083846   7.881335  10.218059  24.402203   # H_
 319 1 3   0.190376   9.367877   2.360393  26.810471   # C_3
 320 1 4   0.020880  10.117199   3.075020  26.473195   # H_
 321 1 4  -0.010088   9.078745   1.674814  25.968088   # H_
 322 1 3  -0.228025   9.970347   1.602733   1.057013   # C_3
 323 1 4  -0.000826   8.646795   1.152225   2.688524   # H_
 324 1 3  -0.048643   8.326195   3.124777   2.014510   # C_3
 325 1 4   0.033262  11.044036   1.786432   1.104888   # H_
 326 1 4  -0.007203   9.826723   0.523665   0.916078   # H_
 327 1 4   0.053739   3.715144   9.709187  24.425064   # H_
 328 1 4   0.074709   4.621271   8.161322  24.071113   # H_
 329 1 4   0.038546   4.681249   9.072290  21.804587   # H_
 330 1 4   0.034681   8.719952   4.110247   2.361469   # H_
 331 1 4   0.040328   7.335615   3.004821   2.502942   # H_
 332 1 4   0.023638   7.465523   2.155445   0.327324   # H_
 333 1 4   0.093918   7.971436   4.089537  25.623550   # H_
 334 1 4   0.122741   5.288560   9.842053  26.887393   # H_
 335 1 4   0.036014   4.746068  10.764048  22.484787   # H_
 336 1 4   0.018174  10.015532   2.291001   3.073675   # H_
 337 1 2  -0.670611   1.933822  23.329590   0.000000   # O_3
 338 1 3   0.473559   3.152211  23.743789   0.000000   # C_3
 339 1 2  -0.618081   3.566410  24.962178   0.000000   # O_3
 340 1 3  -0.138283   4.209224  22.686776   0.000000   # C_3
 341 1 3   0.048065   3.891851  21.360803   0.000000   # C_3
 342 1 3  -0.011275   5.535197  23.004149   0.000000   # C_3
 343 1 3  -0.117531   4.827832  20.387168   0.000000   # C_3
 344 1 4  -0.000133   2.996214  21.116050   0.000000   # H_
 345 1 3   0.003664   6.508832  22.068168   0.000000   # C_3
 346 1 4   0.032202   5.779950  23.899786   0.000000   # H_
 347 1 3   0.004174   6.204907  20.691093   0.000000   # C_3
 348 1 3   0.015336   7.243093  19.652907   0.000000   # C_3
 349 1 4   0.056540   4.558872  19.496910   0.000000   # H_
 350 1 3  -0.006929   6.939168  18.275832   0.000000   # C_3
 351 1 5  -0.227584   7.907962  22.647239   0.235340   # N_3
 352 1 3  -0.134416   8.620168  19.956832   0.000000   # C_3
 353 1 3   0.001326   7.912803  17.339851   0.000000   # C_3
 354 1 5  -0.151545   5.649505  17.783366   0.673207   # N_3
 355 1 3   0.060813   9.556149  18.983197   0.000000   # C_3
 356 1 4   0.063328   8.889128  20.847090   0.000000   # H_
 357 1 3  -0.160629   9.238776  17.657224   0.000000   # C_3
 358 1 3   0.477969  10.295789  16.600211   0.000000   # C_3
 359 1 4   0.025700   7.668050  16.444214   0.000000   # H_
 360 1 4  -0.003865  10.451786  19.227950   0.000000   # H_
 361 1 2  -0.670411   9.881590  15.381822   0.000000   # O_3
 362 1 2  -0.670951  11.514178  17.014410   0.000000   # O_3
 363 1 3  -0.059378   5.115619  17.166103   4.300132   # C_3
 364 1 3   0.050005   5.785061  17.105856   1.981159   # C_3
 365 1 3  -0.084477   9.262176  24.894669  24.573530   # C_3
 366 1 3   0.299749   8.181763  23.889834  26.402727   # C_3
 367 1 4   0.002485   5.770537  15.996396   1.869810   # H_
 368 1 3  -0.092054   4.680980  17.605584   2.849631   # C_3
 369 1 3  -0.095015   7.066117  17.391223   2.766254   # C_3
 370 1 3  -0.051980   6.676394  17.163413   4.207341   # C_3
 371 1 4   0.037463   7.046214  16.177406   4.518528   # H_
 372 1 4   0.036331   7.113454  17.941784   4.871672   # H_
 373 1 4   0.059589   7.375152  18.459263   2.636077   # H_
 374 1 4   0.055028   7.881335  16.677941   2.493797   # H_
 375 1 3  -0.396797   9.367877  24.535607   0.085529   # C_3
 376 1 4   0.078187  10.117199  23.820980   0.422805   # H_
 377 1 4   0.101786   9.078745  25.221186   0.927912   # H_
 378 1 3   0.121047   9.970347  25.293267  25.838987   # C_3
 379 1 4   0.084992   8.646795  25.743775  24.207476   # H_
 380 1 3  -0.143821   8.326195  23.771223  24.881490   # C_3
 381 1 4   0.024915  11.044036  25.109568  25.791112   # H_
 382 1 4   0.067330   9.826723  26.372335  25.979922   # H_
 383 1 4   0.026784   3.715144  17.186813   2.470936   # H_
 384 1 4   0.051896   4.621271  18.734678   2.824887   # H_
 385 1 4   0.038066   4.681249  17.823710   5.091413   # H_
 386 1 4   0.085489   8.719952  22.785753  24.534531   # H_
 387 1 4   0.096311   7.335615  23.891179  24.393058   # H_
 388 1 4   0.041341   7.465523  24.740555  26.568676   # H_
 389 1 4   0.082720   7.971436  22.806463   1.272450   # H_
 390 1 4   0.036521   5.288560  17.053947   0.008607   # H_
 391 1 4   0.033158   4.746068  16.131952   4.410944   # H_
 392 1 4   0.047584  10.015532  24.604999  23.822325   # H_
 393 1 2  -0.616008  24.962178  23.329590   0.000000   # O_3
 394 1 3   0.469290  23.743789  23.743789   0.000000   # C_3
 395 1 2  -0.613004  23.329590  24.962178   0.000000   # O_3
 396 1 3  -0.131407  22.686776  22.686776   0.000000   # C_3
 397 1 3   0.043999  23.004149  21.360803   0.000000   # C_3
 398 1 3   0.015279  21.360803  23.004149   0.000000   # C_3
 399 1 3  -0.108650  22.068168  20.387168   0.000000   # C_3
 400 1 4   0.023354  23.899786  21.116050   0.000000   # H_
 401 1 3  -0.047929  20.387168  22.068168   0.000000   # C_3
 402 1 4   0.038799  21.116050  23.899786   0.000000   # H_
 403 1 3   0.006162  20.691093  20.691093   0.000000   # C_3
 404 1 3   0.024571  19.652907  19.652907   0.000000   # C_3
 405 1 4   0.045217  22.337128  19.496910   0.000000   # H_
 406 1 3  -0.075867  19.956832  18.275832   0.000000   # C_3
 407 1 5  -0.028424  18.988038  22.647239  26.660929   # N_3
 408 1 3  -0.143262  18.275832  19.956832   0.000000   # C_3
 409 1 3   0.028322  18.983197  17.339851   0.000000   # C_3
 410 1 5  -0.095501  21.246495  17.783366  26.222793   # N_3
 411 1 3   0.070895  17.339851  18.983197   0.000000   # C_3
 412 1 4   0.057461  18.006872  20.847090   0.000000   # H_
 413 1 3  -0.179395  17.657224  17.657224   0.000000   # C_3
 414 1 3   0.482283  16.600211  16.600211   0.000000   # C_3
 415 1 4   0.001386  19.227950  16.444214   0.000000   # H_
 416 1 4  -0.002409  16.444214  19.227950   0.000000   # H_
 417 1 2  -0.673654  17.014410  15.381822   0.000000   # O_3
 418 1 2  -0.671497  15.381822  17.014410   0.000000   # O_3
 419 1 3  -0.056471  21.780381  17.166103  22.595868   # C_3
 420 1 3   0.072673  21.110939  17.105856  24.914841   # C_3
 421 1 3  -0.013992  17.633824  24.894669   2.322470   # C_3
 422 1 3  -0.168788  18.714237  23.889834   0.493273   # C_3
 423 1 4   0.029281  21.125463  15.996396  25.026190   # H_
 424 1 3  -0.098958  22.215020  17.605584  24.046369   # C_3
 425 1 3  -0.097547  19.829883  17.391223  24.129746   # C_3
 426 1 3  -0.049196  20.219606  17.163413  22.688928   # C_3
 427 1 4   0.039077  19.849786  16.177406  22.377472   # H_
 428 1 4   0.040786  19.782546  17.941784  22.024328   # H_
 429 1 4   0.089110  19.520848  18.459263  24.259923   # H_
 430 1 4   0.083430  19.014665  16.677941  24.402203   # H_
 431 1 3   0.191187  17.528123  24.535607  26.810471   # C_3
 432 1 4   0.022016  16.778801  23.820980  26.473195   # H_
 433 1 4   0.026251  17.816986  25.221186  25.968088   # H_
 434 1 3  -0.231545  16.925653  25.293267   1.057013   # C_3
 435 1 4   0.059588  18.249205  25.743775   2.688524   # H_
 436 1 3  -0.047975  18.569805  23.771223   2.014510   # C_3
 437 1 4   0.059637  15.851964  25.109568   1.104888   # H_
 438 1 4   0.084787  17.069277  26.372335   0.916078   # H_
 439 1 4   0.062152  23.180856  17.186813  24.425064   # H_
 440 1 4   0.080254  22.274729  18.734678  24.071113   # H_
 441 1 4   0.049964  22.214751  17.823710  21.804587   # H_
 442 1 4   0.037845  18.176317  22.785753   2.361469   # H_
 443 1 4   0.058842  19.560385  23.891179   2.502942   # H_
 444 1 4   0.050900  19.430477  24.740555   0.327324   # H_
 445 1 4   0.100086  18.924564  22.806463  25.623550   # H_
 446 1 4   0.122167  21.607440  17.053947  26.887393   # H_
 447 1 4   0.043272  22.149932  16.131952  22.484787   # H_
 448 1 4   0.030970  16.880468  24.604999   3.073675   # H_
 449 1 2  -0.620646  24.962178   3.566410   0.000000   # O_3
 450 1 3   0.473681  23.743789   3.152211   0.000000   # C_3
 451 1 2  -0.671334  23.329590   1.933822   0.000000   # O_3
 452 1 3  -0.139012  22.686776   4.209224   0.000000   # C_3
 453 1 3   0.045072  23.004149   5.535197   0.000000   # C_3
 454 1 3  -0.009257  21.360803   3.891851   0.000000   # C_3
 455 1 3  -0.113125  22.068168   6.508832   0.000000   # C_3
 456 1 4   0.017523  23.899786   5.779950   0.000000   # H_
 457 1 3  -0.000272  20.387168   4.827832   0.000000   # C_3
 458 1 4   0.014242  21.116050   2.996214   0.000000   # H_
 459 1 3   0.003661  20.691093   6.204907   0.000000   # C_3
 460 1 3   0.015246  19.652907   7.243093   0.000000   # C_3
 461 1 4   0.056559  22.337128   7.399090   0.000000   # H_
 462 1 3  -0.006866  19.956832   8.620168   0.000000   # C_3
 463 1 5  -0.228686  18.988038   4.248761   0.235340   # N_3
 464 1 3  -0.134745  18.275832   6.939168   0.000000   # C_3
 465 1 3   0.001031  18.983197   9.556149   0.000000   # C_3
 466 1 5  -0.151424  21.246495   9.112365   0.673207   # N_3
 467 1 3   0.060678  17.339851   7.912803   0.000000   # C_3
 468 1 4   0.063086  18.006872   6.048910   0.000000   # H_
 469 1 3  -0.160542  17.657224   9.238776   0.000000   # C_3
 470 1 3   0.477875  16.600211  10.295789   0.000000   # C_3
 471 1 4   0.026201  19.227950  10.451786   0.000000   # H_
 472 1 4  -0.004071  16.444214   7.668050   0.000000   # H_
 473 1 2  -0.670171  17.014410  11.514178   0.000000   # O_3
 474 1 2  -0.671052  15.381822   9.881590   0.000000   # O_3
 475 1 3  -0.059814  21.780381   9.729897   4.300132   # C_3
 476 1 3   0.050382  21.110939   9.790144   1.981159   # C_3
 477 1 3  -0.091445  17.633824   2.001331  24.573530   # C_3
 478 1 3   0.307948  18.714237   3.006166  26.402727   # C_3
 479 1 4   0.004872  21.125463  10.899604   1.869810   # H_
 480 1 3  -0.091206  22.215020   9.290416   2.849631   # C_3
 481 1 3  -0.095375  19.829883   9.504777   2.766254   # C_3
 482 1 3  -0.051160  20.219606   9.732587   4.207341   # C_3
 483 1 4   0.037710  19.849786  10.718594   4.518528   # H_
 484 1 4   0.036339  19.782546   8.954216   4.871672   # H_
 485 1 4   0.059215  19.520848   8.436737   2.636077   # H_
 486 1 4   0.055089  19.014665  10.218059   2.493797   # H_
 487 1 3  -0.412573  17.528123   2.360393   0.085529   # C_3
 488 1 4   0.078563  16.778801   3.075020   0.422805   # H_