 (written by mofun)

704 atoms
0 bonds
0 angles
0 dihedrals
0 impropers

4 atom types
   0.000000  26.896000 xlo xhi
   0.000000  26.896000 ylo yhi
   0.000000  26.896000 zlo zhi

Masses

 1 91.2240   # Zr3+4
 2 15.9994   # O_3
 3 12.0107   # C_3
 4 1.0079   # H_

Pair Coeffs

 1   0.069000   2.783168 # Zr3+4
 2   0.060000   3.118146 # O_3
 3   0.105000   3.430851 # C_3
 4   0.044000   2.571134 # H_

Atoms

 1 1 1   3.182740   2.475508   0.000000   0.000000   # Zr3+4
 2 1 1   3.181770  24.420492   0.000000   0.000000   # Zr3+4
 3 1 1   3.182710   0.000000   2.475508   0.000000   # Zr3+4
 4 1 1   3.181730   0.000000  24.420492   0.000000   # Zr3+4
 5 1 1   3.182730   0.000000   0.000000   2.475508   # Zr3+4
 6 1 1   3.181750   0.000000   0.000000  24.420492   # Zr3+4
 7 1 1   3.214990   2.475508  13.448000  13.448000   # Zr3+4
 8 1 1   3.213600  24.420492  13.448000  13.448000   # Zr3+4
 9 1 1   3.198480   0.000000  15.923508  13.448000   # Zr3+4
 10 1 1   3.198370   0.000000  10.972492  13.448000   # Zr3+4
 11 1 1   3.198570   0.000000  13.448000  15.923508   # Zr3+4
 12 1 1   3.198420   0.000000  13.448000  10.972492   # Zr3+4
 13 1 1   3.198920  15.923508   0.000000  13.448000   # Zr3+4
 14 1 1   3.198800  10.972492   0.000000  13.448000   # Zr3+4
 15 1 1   3.215160  13.448000   2.475508  13.448000   # Zr3+4
 16 1 1   3.213800  13.448000  24.420492  13.448000   # Zr3+4
 17 1 1   3.198510  13.448000   0.000000  15.923508   # Zr3+4
 18 1 1   3.198390  13.448000   0.000000  10.972492   # Zr3+4
 19 1 1   3.198640  15.923508  13.448000   0.000000   # Zr3+4
 20 1 1   3.198530  10.972492  13.448000   0.000000   # Zr3+4
 21 1 1   3.198890  13.448000  15.923508   0.000000   # Zr3+4
 22 1 1   3.198830  13.448000  10.972492   0.000000   # Zr3+4
 23 1 1   3.215580  13.448000  13.448000   2.475508   # Zr3+4
 24 1 1   3.214240  13.448000  13.448000  24.420492   # Zr3+4
 25 1 2  -1.346330   1.221078   1.221078   1.221078   # O_3
 26 1 2  -1.116800  25.674922  25.674922   1.221078   # O_3
 27 1 2  -1.116720  25.674922   1.221078  25.674922   # O_3
 28 1 2  -1.116900   1.221078  25.674922  25.674922   # O_3
 29 1 2  -1.229790   1.221078   1.221078  25.674922   # O_3
 30 1 2  -1.007410  25.674922  25.674922  25.674922   # O_3
 31 1 2  -1.229930   1.221078  25.674922   1.221078   # O_3
 32 1 2  -1.229700  25.674922   1.221078   1.221078   # O_3
 33 1 2  -1.279450   1.221078  14.669078  14.669078   # O_3
 34 1 2  -1.163110  25.674922  12.226922  14.669078   # O_3
 35 1 2  -1.163090  25.674922  14.669078  12.226922   # O_3
 36 1 2  -1.280000   1.221078  12.226922  12.226922   # O_3
 37 1 2  -1.279750   1.221078  14.669078  12.226922   # O_3
 38 1 2  -1.163130  25.674922  12.226922  12.226922   # O_3
 39 1 2  -1.279660   1.221078  12.226922  14.669078   # O_3
 40 1 2  -1.163150  25.674922  14.669078  14.669078   # O_3
 41 1 2  -1.279860  14.669078   1.221078  14.669078   # O_3
 42 1 2  -1.162970  12.226922  25.674922  14.669078   # O_3
 43 1 2  -1.280490  12.226922   1.221078  12.226922   # O_3
 44 1 2  -1.162830  14.669078  25.674922  12.226922   # O_3
 45 1 2  -1.279220  14.669078   1.221078  12.226922   # O_3
 46 1 2  -1.163870  12.226922  25.674922  12.226922   # O_3
 47 1 2  -1.164220  14.669078  25.674922  14.669078   # O_3
 48 1 2  -1.279260  12.226922   1.221078  14.669078   # O_3
 49 1 2  -1.278740  14.669078  14.669078   1.221078   # O_3
 50 1 2  -1.280770  12.226922  12.226922   1.221078   # O_3
 51 1 2  -1.163140  12.226922  14.669078  25.674922   # O_3
 52 1 2  -1.162680  14.669078  12.226922  25.674922   # O_3
 53 1 2  -1.164500  14.669078  14.669078  25.674922   # O_3
 54 1 2  -1.163500  12.226922  12.226922  25.674922   # O_3
 55 1 2  -1.279650  14.669078  12.226922   1.221078   # O_3
 56 1 2  -1.279910  12.226922  14.669078   1.221078   # O_3
 57 1 2  -0.693457   3.566410   0.000000   1.933822   # O_3
 58 1 3   0.507127   3.152211   0.000000   3.152211   # C_3
 59 1 2  -0.693447   1.933822   0.000000   3.566410   # O_3
 60 1 3  -0.223589   4.209224   0.000000   4.209224   # C_3
 61 1 3   0.116569   5.535197   0.000000   3.891851   # C_3
 62 1 3   0.116525   3.891851   0.000000   5.535197   # C_3
 63 1 3  -0.174569   6.508832   0.000000   4.827832   # C_3
 64 1 4  -0.021845   5.779950   0.000000   2.996214   # H_
 65 1 3  -0.174535   4.827832   0.000000   6.508832   # C_3
 66 1 4  -0.021819   2.996214   0.000000   5.779950   # H_
 67 1 3   0.061168   6.204907   0.000000   6.204907   # C_3
 68 1 3   0.032891   7.243093   0.000000   7.243093   # C_3
 69 1 4   0.064890   7.399090   0.000000   4.558872   # H_
 70 1 3  -0.138307   8.620168   0.000000   6.939168   # C_3
 71 1 4   0.064781   4.558872   0.000000   7.399090   # H_
 72 1 3  -0.147288   6.939168   0.000000   8.620168   # C_3
 73 1 3   0.068474   9.556149   0.000000   7.912803   # C_3
 74 1 4   0.051932   8.889128   0.000000   6.048910   # H_
 75 1 3   0.085829   7.912803   0.000000   9.556149   # C_3
 76 1 4   0.055335   6.048910   0.000000   8.889128   # H_
 77 1 3  -0.195268   9.238776   0.000000   9.238776   # C_3
 78 1 3   0.487942  10.295789   0.000000  10.295789   # C_3
 79 1 2   0.011102  10.961465  26.876635   7.498067   # O_3
 80 1 4  -0.011780   7.668050   0.000000  10.451786   # H_
 81 1 2  -0.685116  11.514178   0.000000   9.881590   # O_3
 82 1 2  -0.682617   9.881590   0.000000  11.514178   # O_3
 83 1 4   0.007825  11.336395   0.904781   7.531956   # H_
 84 1 2  -0.682495  23.329590   0.000000   1.933822   # O_3
 85 1 3   0.491679  23.743789   0.000000   3.152211   # C_3
 86 1 2  -0.601834  24.962178   0.000000   3.566410   # O_3
 87 1 3  -0.180395  22.686776   0.000000   4.209224   # C_3
 88 1 3   0.095975  21.360803   0.000000   3.891851   # C_3
 89 1 3   0.096823  23.004149   0.000000   5.535197   # C_3
 90 1 3  -0.149059  20.387168   0.000000   4.827832   # C_3
 91 1 4  -0.010085  21.116050   0.000000   2.996214   # H_
 92 1 3  -0.139801  22.068168   0.000000   6.508832   # C_3
 93 1 4   0.032920  23.899786   0.000000   5.779950   # H_
 94 1 3   0.053810  20.691093   0.000000   6.204907   # C_3
 95 1 3   0.048406  19.652907   0.000000   7.243093   # C_3
 96 1 4   0.060307  19.496910   0.000000   4.558872   # H_
 97 1 3  -0.140066  18.275832   0.000000   6.939168   # C_3
 98 1 4   0.083522  22.337128   0.000000   7.399090   # H_
 99 1 3  -0.144638  19.956832   0.000000   8.620168   # C_3
 100 1 3   0.073239  17.339851   0.000000   7.912803   # C_3
 101 1 4   0.056296  18.006872   0.000000   6.048910   # H_
 102 1 3   0.093404  18.983197   0.000000   9.556149   # C_3
 103 1 4   0.079298  20.847090   0.000000   8.889128   # H_
 104 1 3  -0.188398  17.657224   0.000000   9.238776   # C_3
 105 1 3   0.489794  16.600211   0.000000  10.295789   # C_3
 106 1 2   0.010537  15.934266  26.877442   7.499143   # O_3
 107 1 4   0.012647  19.227950   0.000000  10.451786   # H_
 108 1 2  -0.683727  15.381822   0.000000   9.881590   # O_3
 109 1 2  -0.668452  17.014410   0.000000  11.514178   # O_3
 110 1 4   0.010828  15.547502   0.898057   7.570686   # H_
 111 1 2  -0.592291  23.329590   0.000000  24.962178   # O_3
 112 1 3   0.474978  23.743789   0.000000  23.743789   # C_3
 113 1 2  -0.592281  24.962178   0.000000  23.329590   # O_3
 114 1 3  -0.134737  22.686776   0.000000  22.686776   # C_3
 115 1 3   0.070612  21.360803   0.000000  23.004149   # C_3
 116 1 3   0.070597  23.004149   0.000000  21.360803   # C_3
 117 1 3  -0.109330  20.387168   0.000000  22.068168   # C_3
 118 1 4   0.045182  21.116050   0.000000  23.899786   # H_
 119 1 3  -0.109356  22.068168   0.000000  20.387168   # C_3
 120 1 4   0.045119  23.899786   0.000000  21.116050   # H_
 121 1 3   0.036981  20.691093   0.000000  20.691093   # C_3
 122 1 3   0.072945  19.652907   0.000000  19.652907   # C_3
 123 1 4   0.074322  19.496910   0.000000  22.337128   # H_
 124 1 3  -0.156326  18.275832   0.000000  19.956832   # C_3
 125 1 4   0.074261  22.337128   0.000000  19.496910   # H_
 126 1 3  -0.166216  19.956832   0.000000  18.275832   # C_3
 127 1 3   0.091617  17.339851   0.000000  18.983197   # C_3
 128 1 4   0.080054  18.006872   0.000000  20.847090   # H_
 129 1 3   0.111733  18.983197   0.000000  17.339851   # C_3
 130 1 4   0.084539  20.847090   0.000000  18.006872   # H_
 131 1 3  -0.205824  17.657224   0.000000  17.657224   # C_3
 132 1 3   0.493797  16.600211   0.000000  16.600211   # C_3
 133 1 2   0.016930  15.936418  26.873138  19.408692   # O_3
 134 1 4  -0.009965  19.227950   0.000000  16.444214   # H_
 135 1 2  -0.683479  15.381822   0.000000  17.014410   # O_3
 136 1 2  -0.681259  17.014410   0.000000  15.381822   # O_3
 137 1 4   0.017388  15.629804   0.922802  19.520848   # H_
 138 1 2  -0.601945   3.566410   0.000000  24.962178   # O_3
 139 1 3   0.491439   3.152211   0.000000  23.743789   # C_3
 140 1 2  -0.682528   1.933822   0.000000  23.329590   # O_3
 141 1 3  -0.179958   4.209224   0.000000  22.686776   # C_3
 142 1 3   0.095689   5.535197   0.000000  23.004149   # C_3
 143 1 3   0.095281   3.891851   0.000000  21.360803   # C_3
 144 1 3  -0.138951   6.508832   0.000000  22.068168   # C_3
 145 1 4   0.032867   5.779950   0.000000  23.899786   # H_
 146 1 3  -0.148327   4.827832   0.000000  20.387168   # C_3
 147 1 4  -0.009897   2.996214   0.000000  21.116050   # H_
 148 1 3   0.052391   6.204907   0.000000  20.691093   # C_3
 149 1 3   0.049962   7.243093   0.000000  19.652907   # C_3
 150 1 4   0.081724   7.399090   0.000000  22.337128   # H_
 151 1 3  -0.143224   8.620168   0.000000  19.956832   # C_3
 152 1 4   0.060646   4.558872   0.000000  19.496910   # H_
 153 1 3  -0.146990   6.939168   0.000000  18.275832   # C_3
 154 1 3   0.079840   9.556149   0.000000  18.983197   # C_3
 155 1 4   0.073243   8.889128   0.000000  20.847090   # H_
 156 1 3   0.092027   7.912803   0.000000  17.339851   # C_3
 157 1 4   0.062847   6.048910   0.000000  18.006872   # H_
 158 1 3  -0.191192   9.238776   0.000000  17.657224   # C_3
 159 1 3   0.490501  10.295789   0.000000  16.600211   # C_3
 160 1 2   0.020010  10.960120  26.874214  19.404657   # O_3
 161 1 4   0.003619   7.668050   0.000000  16.444214   # H_
 162 1 2  -0.682218  11.514178   0.000000  17.014410   # O_3
 163 1 2  -0.671422   9.881590   0.000000  15.381822   # O_3
 164 1 4   0.015942  11.292286   0.918767  19.471359   # H_
 165 1 2  -0.693542   1.933822   3.566410   0.000000   # O_3
 166 1 3   0.507212   3.152211   3.152211   0.000000   # C_3
 167 1 2  -0.693512   3.566410   1.933822   0.000000   # O_3
 168 1 3  -0.223764   4.209224   4.209224   0.000000   # C_3
 169 1 3   0.116802   3.891851   5.535197   0.000000   # C_3
 170 1 3   0.116738   5.535197   3.891851   0.000000   # C_3
 171 1 3  -0.174821   4.827832   6.508832   0.000000   # C_3
 172 1 4  -0.022012   2.996214   5.779950   0.000000   # H_
 173 1 3  -0.174805   6.508832   4.827832   0.000000   # C_3
 174 1 4  -0.021982   5.779950   2.996214   0.000000   # H_
 175 1 3   0.061549   6.204907   6.204907   0.000000   # C_3
 176 1 3   0.032128   7.243093   7.243093   0.000000   # C_3
 177 1 4   0.064879   4.558872   7.399090   0.000000   # H_
 178 1 3  -0.137635   6.939168   8.620168   0.000000   # C_3
 179 1 4   0.064697   7.399090   4.558872   0.000000   # H_
 180 1 3  -0.145741   8.620168   6.939168   0.000000   # C_3
 181 1 3   0.068102   7.912803   9.556149   0.000000   # C_3
 182 1 4   0.051667   6.048910   8.889128   0.000000   # H_
 183 1 3   0.084015   9.556149   7.912803   0.000000   # C_3
 184 1 4   0.054496   8.889128   6.048910   0.000000   # H_
 185 1 3  -0.193226   9.238776   9.238776   0.000000   # C_3
 186 1 3   0.487204  10.295789  10.295789   0.000000   # C_3
 187 1 2   0.008429   7.492419  10.967651  26.881745   # O_3
 188 1 4  -0.008870  10.451786   7.668050   0.000000   # H_
 189 1 2  -0.684190   9.881590  11.514178   0.000000   # O_3
 190 1 2  -0.678736  11.514178   9.881590   0.000000   # O_3
 191 1 4   0.013789   7.716462  11.345540   0.876810   # H_
 192 1 2  -0.682699   1.933822  23.329590   0.000000   # O_3
 193 1 3   0.491354   3.152211  23.743789   0.000000   # C_3
 194 1 2  -0.602070   3.566410  24.962178   0.000000   # O_3
 195 1 3  -0.179918   4.209224  22.686776   0.000000   # C_3
 196 1 3   0.094709   3.891851  21.360803   0.000000   # C_3
 197 1 3   0.095548   5.535197  23.004149   0.000000   # C_3
 198 1 3  -0.148173   4.827832  20.387168   0.000000   # C_3
 199 1 4  -0.010192   2.996214  21.116050   0.000000   # H_
 200 1 3  -0.138851   6.508832  22.068168   0.000000   # C_3
 201 1 4   0.032951   5.779950  23.899786   0.000000   # H_
 202 1 3   0.051789   6.204907  20.691093   0.000000   # C_3
 203 1 3   0.049833   7.243093  19.652907   0.000000   # C_3
 204 1 4   0.059130   4.558872  19.496910   0.000000   # H_
 205 1 3  -0.142627   6.939168  18.275832   0.000000   # C_3
 206 1 4   0.082246   7.399090  22.337128   0.000000   # H_
 207 1 3  -0.149440   8.620168  19.956832   0.000000   # C_3
 208 1 3   0.074678   7.912803  17.339851   0.000000   # C_3
 209 1 4   0.056373   6.048910  18.006872   0.000000   # H_
 210 1 3   0.095822   9.556149  18.983197   0.000000   # C_3
 211 1 4   0.078638   8.889128  20.847090   0.000000   # H_
 212 1 3  -0.193039   9.238776  17.657224   0.000000   # C_3
 213 1 3   0.489887  10.295789  16.600211   0.000000   # C_3
 214 1 2   0.008781   7.498336  15.932652  26.879862   # O_3
 215 1 4   0.004291  10.451786  19.227950   0.000000   # H_
 216 1 2  -0.683523   9.881590  15.381822   0.000000   # O_3
 217 1 2  -0.673543  11.514178  17.014410   0.000000   # O_3
 218 1 4   0.013683   7.664822  15.530557   0.879768   # H_
 219 1 2  -0.592439  24.962178  23.329590   0.000000   # O_3
 220 1 3   0.475313  23.743789  23.743789   0.000000   # C_3
 221 1 2  -0.592458  23.329590  24.962178   0.000000   # O_3
 222 1 3  -0.135555  22.686776  22.686776   0.000000   # C_3
 223 1 3   0.071706  23.004149  21.360803   0.000000   # C_3
 224 1 3   0.071856  21.360803  23.004149   0.000000   # C_3
 225 1 3  -0.110519  22.068168  20.387168   0.000000   # C_3
 226 1 4   0.044624  23.899786  21.116050   0.000000   # H_
 227 1 3  -0.110535  20.387168  22.068168   0.000000   # C_3
 228 1 4   0.044842  21.116050  23.899786   0.000000   # H_
 229 1 3   0.038808  20.691093  20.691093   0.000000   # C_3
 230 1 3   0.071158  19.652907  19.652907   0.000000   # C_3
 231 1 4   0.074644  22.337128  19.496910   0.000000   # H_
 232 1 3  -0.153766  19.956832  18.275832   0.000000   # C_3
 233 1 4   0.075435  19.496910  22.337128   0.000000   # H_
 234 1 3  -0.161223  18.275832  19.956832   0.000000   # C_3
 235 1 3   0.090266  18.983197  17.339851   0.000000   # C_3
 236 1 4   0.079378  20.847090  18.006872   0.000000   # H_
 237 1 3   0.109160  17.339851  18.983197   0.000000   # C_3
 238 1 4   0.085107  18.006872  20.847090   0.000000   # H_
 239 1 3  -0.201181  17.657224  17.657224   0.000000   # C_3
 240 1 3   0.493457  16.600211  16.600211   0.000000   # C_3
 241 1 2   0.016074  19.396857  15.933190  26.879324   # O_3
 242 1 4  -0.001232  16.444214  19.227950   0.000000   # H_
 243 1 2  -0.682480  17.014410  15.381822   0.000000   # O_3
 244 1 2  -0.676021  15.381822  17.014410   0.000000   # O_3
 245 1 4   0.022205  19.252964  15.532171   0.884072   # H_
 246 1 2  -0.601959  24.962178   3.566410   0.000000   # O_3
 247 1 3   0.491428  23.743789   3.152211   0.000000   # C_3
 248 1 2  -0.682522  23.329590   1.933822   0.000000   # O_3
 249 1 3  -0.179924  22.686776   4.209224   0.000000   # C_3
 250 1 3   0.095667  23.004149   5.535197   0.000000   # C_3
 251 1 3   0.095253  21.360803   3.891851   0.000000   # C_3
 252 1 3  -0.138926  22.068168   6.508832   0.000000   # C_3
 253 1 4   0.032804  23.899786   5.779950   0.000000   # H_
 254 1 3  -0.148277  20.387168   4.827832   0.000000   # C_3
 255 1 4  -0.009856  21.116050   2.996214   0.000000   # H_
 256 1 3   0.052405  20.691093   6.204907   0.000000   # C_3
 257 1 3   0.049936  19.652907   7.243093   0.000000   # C_3
 258 1 4   0.081630  22.337128   7.399090   0.000000   # H_
 259 1 3  -0.143113  19.956832   8.620168   0.000000   # C_3
 260 1 4   0.060613  19.496910   4.558872   0.000000   # H_
 261 1 3  -0.146798  18.275832   6.939168   0.000000   # C_3
 262 1 3   0.080046  18.983197   9.556149   0.000000   # C_3
 263 1 4   0.073313  20.847090   8.889128   0.000000   # H_
 264 1 3   0.091909  17.339851   7.912803   0.000000   # C_3
 265 1 4   0.062710  18.006872   6.048910   0.000000   # H_
 266 1 3  -0.190984  17.657224   9.238776   0.000000   # C_3
 267 1 3   0.490232  16.600211  10.295789   0.000000   # C_3
 268 1 2   0.018681  19.398471  10.963885  26.880131   # O_3
 269 1 4   0.003982  16.444214   7.668050   0.000000   # H_
 270 1 2  -0.681678  17.014410  11.514178   0.000000   # O_3
 271 1 2  -0.670426  15.381822   9.881590   0.000000   # O_3
 272 1 4   0.020485  19.216385  11.364905   0.877079   # H_
 273 1 2  -0.693458   0.000000   1.933822   3.566410   # O_3
 274 1 3   0.507274   0.000000   3.152211   3.152211   # C_3
 275 1 2  -0.693558   0.000000   3.566410   1.933822   # O_3
 276 1 3  -0.223794   0.000000   4.209224   4.209224   # C_3
 277 1 3   0.117091   0.000000   3.891851   5.535197   # C_3
 278 1 3   0.116981   0.000000   5.535197   3.891851   # C_3
 279 1 3  -0.174816   0.000000   4.827832   6.508832   # C_3
 280 1 4  -0.021783   0.000000   2.996214   5.779950   # H_
 281 1 3  -0.174801   0.000000   6.508832   4.827832   # C_3
 282 1 4  -0.022045   0.000000   5.779950   2.996214   # H_
 283 1 3   0.061930   0.000000   6.204907   6.204907   # C_3
 284 1 3   0.032709   0.000000   7.243093   7.243093   # C_3
 285 1 4   0.065418   0.000000   4.558872   7.399090   # H_
 286 1 3  -0.137641   0.000000   6.939168   8.620168   # C_3
 287 1 4   0.065035   0.000000   7.399090   4.558872   # H_
 288 1 3  -0.145135   0.000000   8.620168   6.939168   # C_3
 289 1 3   0.068799   0.000000   7.912803   9.556149   # C_3
 290 1 4   0.052187   0.000000   6.048910   8.889128   # H_
 291 1 3   0.086324   0.000000   9.556149   7.912803   # C_3
 292 1 4   0.055696   0.000000   8.889128   6.048910   # H_
 293 1 3  -0.193755   0.000000   9.238776   9.238776   # C_3
 294 1 3   0.489506   0.000000  10.295789  10.295789   # C_3
 295 1 2   0.008544  26.881476   7.493764  10.966306   # O_3
 296 1 4  -0.007084   0.000000  10.451786   7.668050   # H_
 297 1 2  -0.685694   0.000000   9.881590  11.514178   # O_3
 298 1 2  -0.682536   0.000000  11.514178   9.881590   # O_3
 299 1 4   0.012941   0.873851   7.712697  11.354146   # H_
 300 1 2  -0.682561   0.000000   1.933822  23.329590   # O_3
 301 1 3   0.491155   0.000000   3.152211  23.743789   # C_3
 302 1 2  -0.602006   0.000000   3.566410  24.962178   # O_3
 303 1 3  -0.179300   0.000000   4.209224  22.686776   # C_3
 304 1 3   0.094100   0.000000   3.891851  21.360803   # C_3
 305 1 3   0.094713   0.000000   5.535197  23.004149   # C_3
 306 1 3  -0.147258   0.000000   4.827832  20.387168   # C_3
 307 1 4  -0.009691   0.000000   2.996214  21.116050   # H_
 308 1 3  -0.137877   0.000000   6.508832  22.068168   # C_3
 309 1 4   0.033092   0.000000   5.779950  23.899786   # H_
 310 1 3   0.050710   0.000000   6.204907  20.691093   # C_3
 311 1 3   0.051463   0.000000   7.243093  19.652907   # C_3
 312 1 4   0.059219   0.000000   4.558872  19.496910   # H_
 313 1 3  -0.144227   0.000000   6.939168  18.275832   # C_3
 314 1 4   0.081361   0.000000   7.399090  22.337128   # H_
 315 1 3  -0.152499   0.000000   8.620168  19.956832   # C_3
 316 1 3   0.076097   0.000000   7.912803  17.339851   # C_3
 317 1 4   0.057270   0.000000   6.048910  18.006872   # H_
 318 1 3   0.099358   0.000000   9.556149  18.983197   # C_3
 319 1 4   0.078432   0.000000   8.889128  20.847090   # H_
 320 1 3  -0.196327   0.000000   9.238776  17.657224   # C_3
 321 1 3   0.491919   0.000000  10.295789  16.600211   # C_3
 322 1 2   0.008961  26.878787   7.499412  15.933459   # O_3
 323 1 4  -0.000538   0.000000  10.451786  19.227950   # H_
 324 1 2  -0.685268   0.000000   9.881590  15.381822   # O_3
 325 1 2  -0.679199   0.000000  11.514178  17.014410   # O_3
 326 1 4   0.012003   0.887030   7.628512  15.534323   # H_
 327 1 2  -0.592519   0.000000  24.962178  23.329590   # O_3
 328 1 3   0.475182   0.000000  23.743789  23.743789   # C_3
 329 1 2  -0.592512   0.000000  23.329590  24.962178   # O_3
 330 1 3  -0.135300   0.000000  22.686776  22.686776   # C_3
 331 1 3   0.071283   0.000000  23.004149  21.360803   # C_3
 332 1 3   0.071274   0.000000  21.360803  23.004149   # C_3
 333 1 3  -0.110084   0.000000  22.068168  20.387168   # C_3
 334 1 4   0.044853   0.000000  23.899786  21.116050   # H_
 335 1 3  -0.110047   0.000000  20.387168  22.068168   # C_3
 336 1 4   0.044737   0.000000  21.116050  23.899786   # H_
 337 1 3   0.038065   0.000000  20.691093  20.691093   # C_3
 338 1 3   0.071914   0.000000  19.652907  19.652907   # C_3
 339 1 4   0.074609   0.000000  22.337128  19.496910   # H_
 340 1 3  -0.154601   0.000000  19.956832  18.275832   # C_3
 341 1 4   0.074629   0.000000  19.496910  22.337128   # H_
 342 1 3  -0.162927   0.000000  18.275832  19.956832   # C_3
 343 1 3   0.090796   0.000000  18.983197  17.339851   # C_3
 344 1 4   0.079690   0.000000  20.847090  18.006872   # H_
 345 1 3   0.111577   0.000000  17.339851  18.983197   # C_3
 346 1 4   0.084616   0.000000  18.006872  20.847090   # H_
 347 1 3  -0.202818   0.000000  17.657224  17.657224   # C_3
 348 1 3   0.495262   0.000000  16.600211  16.600211   # C_3
 349 1 2   0.016138  26.878787  19.396588  15.933459   # O_3
 350 1 4  -0.003632   0.000000  16.444214  19.227950   # H_
 351 1 2  -0.684127   0.000000  17.014410  15.381822   # O_3
 352 1 2  -0.679280   0.000000  15.381822  17.014410   # O_3
 353 1 4   0.020279   0.886761  19.265874  15.534054   # H_
 354 1 2  -0.601972   0.000000  24.962178   3.566410   # O_3
 355 1 3   0.490921   0.000000  23.743789   3.152211   # C_3
 356 1 2  -0.682602   0.000000  23.329590   1.933822   # O_3
 357 1 3  -0.178681   0.000000  22.686776   4.209224   # C_3
 358 1 3   0.093816   0.000000  23.004149   5.535197   # C_3
 359 1 3   0.093126   0.000000  21.360803   3.891851   # C_3
 360 1 3  -0.136881   0.000000  22.068168   6.508832   # C_3
 361 1 4   0.033480   0.000000  23.899786   5.779950   # H_
 362 1 3  -0.146176   0.000000  20.387168   4.827832   # C_3
 363 1 4  -0.009627   0.000000  21.116050   2.996214   # H_
 364 1 3   0.049242   0.000000  20.691093   6.204907   # C_3
 365 1 3   0.053503   0.000000  19.652907   7.243093   # C_3
 366 1 4   0.080859   0.000000  22.337128   7.399090   # H_
 367 1 3  -0.147671   0.000000  19.956832   8.620168   # C_3
 368 1 4   0.058485   0.000000  19.496910   4.558872   # H_
 369 1 3  -0.155315   0.000000  18.275832   6.939168   # C_3
 370 1 3   0.083337   0.000000  18.983197   9.556149   # C_3
 371 1 4   0.074703   0.000000  20.847090   8.889128   # H_
 372 1 3   0.098676   0.000000  17.339851   7.912803   # C_3
 373 1 4   0.062183   0.000000  18.006872   6.048910   # H_
 374 1 3  -0.199831   0.000000  17.657224   9.238776   # C_3
 375 1 3   0.492927   0.000000  16.600211  10.295789   # C_3
 376 1 2   0.017312  26.880131  19.398471  10.963616   # O_3
 377 1 4  -0.009976   0.000000  16.444214   7.668050   # H_
 378 1 2  -0.684359   0.000000  17.014410  11.514178   # O_3
 379 1 2  -0.682479   0.000000  15.381822   9.881590   # O_3
 380 1 4   0.019286   0.877348  19.218537  11.365174   # H_
 381 1 2  -0.626120   3.566410  13.448000  15.381822   # O_3
 382 1 3   0.497356   3.152211  13.448000  16.600211   # C_3
 383 1 2  -0.635260   1.933822  13.448000  17.014410   # O_3
 384 1 3  -0.166139   4.209224  13.448000  17.657224   # C_3
 385 1 3   0.085637   5.535197  13.448000  17.339851   # C_3
 386 1 3   0.089133   3.891851  13.448000  18.983197   # C_3
 387 1 3  -0.114390   6.508832  13.448000  18.275832   # C_3
 388 1 4   0.021722   5.779950  13.448000  16.444214   # H_
 389 1 3  -0.115947   4.827832  13.448000  19.956832   # C_3
 390 1 4   0.019932   2.996214  13.448000  19.227950   # H_
 391 1 3   0.029776   6.204907  13.448000  19.652907   # C_3
 392 1 3   0.135481   7.243093  13.448000  20.691093   # C_3
 393 1 4   0.072348   7.399090  13.448000  18.006872   # H_
 394 1 3  -0.262189   8.620168  13.448000  20.387168   # C_3
 395 1 4   0.079868   4.558872  13.448000  20.847090   # H_
 396 1 3  -0.198804   6.939168  13.448000  22.068168   # C_3
 397 1 3   0.296619   9.556149  13.448000  21.360803   # C_3
 398 1 4   0.132325   8.889128  13.448000  19.496910   # H_
 399 1 3   0.180391   7.912803  13.448000  23.004149   # C_3
 400 1 4   0.119087   6.048910  13.448000  22.337128   # H_
 401 1 3  -0.247743   9.238776  13.448000  22.686776   # C_3
 402 1 3   0.527266  10.295789  13.448000  23.743789   # C_3
 403 1 2  -0.283092  10.974644  13.481351  20.992866   # O_3
 404 1 4   0.024879   7.668050  13.448000  23.899786   # H_
 405 1 2  -0.607496  11.514178  13.448000  23.329590   # O_3
 406 1 2  -0.557931   9.881590  13.448000  24.962178   # O_3
 407 1 4   0.155780  11.162647  14.428897  20.742733   # H_
 408 1 2  -0.615788  23.329590  13.448000  15.381822   # O_3
 409 1 3   0.481087  23.743789  13.448000  16.600211   # C_3
 410 1 2  -0.543868  24.962178  13.448000  17.014410   # O_3
 411 1 3  -0.121453  22.686776  13.448000  17.657224   # C_3
 412 1 3   0.061983  21.360803  13.448000  17.339851   # C_3
 413 1 3   0.066217  23.004149  13.448000  18.983197   # C_3
 414 1 3  -0.086414  20.387168  13.448000  18.275832   # C_3
 415 1 4   0.033781  21.116050  13.448000  16.444214   # H_
 416 1 3  -0.078677  22.068168  13.448000  19.956832   # C_3
 417 1 4   0.074913  23.899786  13.448000  19.227950   # H_
 418 1 3   0.017581  20.691093  13.448000  19.652907   # C_3
 419 1 3   0.154653  19.652907  13.448000  20.691093   # C_3
 420 1 4   0.065438  19.496910  13.448000  18.006872   # H_
 421 1 3  -0.270220  18.275832  13.448000  20.387168   # C_3
 422 1 4   0.095421  22.337128  13.448000  20.847090   # H_
 423 1 3  -0.207574  19.956832  13.448000  22.068168   # C_3
 424 1 3   0.305857  17.339851  13.448000  21.360803   # C_3
 425 1 4   0.135452  18.006872  13.448000  19.496910   # H_
 426 1 3   0.194353  18.983197  13.448000  23.004149   # C_3
 427 1 4   0.141431  20.847090  13.448000  22.337128   # H_
 428 1 3  -0.251732  17.657224  13.448000  22.686776   # C_3
 429 1 3   0.530263  16.600211  13.448000  23.743789   # C_3
 430 1 2  -0.283665  15.947714  13.489420  20.914330   # O_3
 431 1 4   0.029662  19.227950  13.448000  23.899786   # H_
 432 1 2  -0.606465  15.381822  13.448000  23.329590   # O_3
 433 1 2  -0.556298  17.014410  13.448000  24.962178   # O_3
 434 1 4   0.152006  15.877516  14.318086  20.367265   # H_
 435 1 2  -0.615797  23.329590  13.448000  11.514178   # O_3
 436 1 3   0.478246  23.743789  13.448000  10.295789   # C_3
 437 1 2  -0.546332  24.962178  13.448000   9.881590   # O_3
 438 1 3  -0.117012  22.686776  13.448000   9.238776   # C_3
 439 1 3   0.051868  21.360803  13.448000   9.556149   # C_3
 440 1 3   0.052672  23.004149  13.448000   7.912803   # C_3
 441 1 3  -0.078339  20.387168  13.448000   8.620168   # C_3
 442 1 4   0.036174  21.116050  13.448000  10.451786   # H_
 443 1 3  -0.070800  22.068168  13.448000   6.939168   # C_3
 444 1 4   0.069230  23.899786  13.448000   7.668050   # H_
 445 1 3  -0.000154  20.691093  13.448000   7.243093   # C_3
 446 1 3   0.163021  19.652907  13.448000   6.204907   # C_3
 447 1 4   0.060240  19.496910  13.448000   8.889128   # H_
 448 1 3  -0.290492  18.275832  13.448000   6.508832   # C_3
 449 1 4   0.073210  22.337128  13.448000   6.048910   # H_
 450 1 3  -0.240676  19.956832  13.448000   4.827832   # C_3
 451 1 3   0.318531  17.339851  13.448000   5.535197   # C_3
 452 1 4   0.139783  18.006872  13.448000   7.399090   # H_
 453 1 3   0.212542  18.983197  13.448000   3.891851   # C_3
 454 1 4   0.124100  20.847090  13.448000   4.558872   # H_
 455 1 3  -0.290006  17.657224  13.448000   4.209224   # C_3
 456 1 3   0.545135  16.600211  13.448000   3.152211   # C_3
 457 1 2  -0.290691  15.940990  13.402815   5.951547   # O_3
 458 1 4  -0.025425  19.227950  13.448000   2.996214   # H_
 459 1 2  -0.615414  15.381822  13.448000   3.566410   # O_3
 460 1 2  -0.648214  17.014410  13.448000   1.933822   # O_3
 461 1 4   0.151355  15.820496  12.582218   6.497536   # H_
 462 1 2  -0.626425   3.566410  13.448000  11.514178   # O_3
 463 1 3   0.494703   3.152211  13.448000  10.295789   # C_3
 464 1 2  -0.638478   1.933822  13.448000   9.881590   # O_3
 465 1 3  -0.163038   4.209224  13.448000   9.238776   # C_3
 466 1 3   0.076409   5.535197  13.448000   9.556149   # C_3
 467 1 3   0.076429   3.891851  13.448000   7.912803   # C_3
 468 1 3  -0.108178   6.508832  13.448000   8.620168   # C_3
 469 1 4   0.023500   5.779950  13.448000  10.451786   # H_
 470 1 3  -0.109898   4.827832  13.448000   6.939168   # C_3
 471 1 4   0.013253   2.996214  13.448000   7.668050   # H_
 472 1 3   0.013280   6.204907  13.448000   7.243093   # C_3
 473 1 3   0.140310   7.243093  13.448000   6.204907   # C_3
 474 1 4   0.067492   7.399090  13.448000   8.889128   # H_
 475 1 3  -0.277641   8.620168  13.448000   6.508832   # C_3
 476 1 4   0.057562   4.558872  13.448000   6.048910   # H_
 477 1 3  -0.229997   6.939168  13.448000   4.827832   # C_3
 478 1 3   0.301787   9.556149  13.448000   5.535197   # C_3
 479 1 4   0.135551   8.889128  13.448000   7.399090   # H_
 480 1 3   0.195873   7.912803  13.448000   3.891851   # C_3
 481 1 4   0.100335   6.048910  13.448000   4.558872   # H_
 482 1 3  -0.285542   9.238776  13.448000   4.209224   # C_3
 483 1 3   0.539688  10.295789  13.448000   3.152211   # C_3
 484 1 2  -0.290407  10.980023  13.418952   5.907437   # O_3
 485 1 4  -0.029649   7.668050  13.448000   2.996214   # H_
 486 1 2  -0.619827  11.514178  13.448000   3.566410   # O_3
 487 1 2  -0.650358   9.881590  13.448000   1.933822   # O_3
 488 1 4   0.156196  11.169640  12.451234   5.953968   # H_