 (written by mofun)

944 atoms
0 bonds
0 angles
0 dihedrals
0 impropers

5 atom types
   0.000000  26.896000 xlo xhi
   0.000000  26.896000 ylo yhi
   0.000000  26.896000 zlo zhi

Masses

 1 91.2240   # Zr3+4
 2 15.9994   # O_3
 3 12.0107   # C_3
 4 1.0079   # H_
 5 14.0067   # N_3

Pair Coeffs

 1   0.069000   2.783168 # Zr3+4
 2   0.060000   3.118146 # O_3
 3   0.105000   3.430851 # C_3
 4   0.044000   2.571134 # H_
 5   0.069000   3.260689 # N_3

Atoms

 1 1 1   3.187610   2.475508   0.000000   0.000000   # Zr3+4
 2 1 1   3.186920  24.420492   0.000000   0.000000   # Zr3+4
 3 1 1   3.187480   0.000000   2.475508   0.000000   # Zr3+4
 4 1 1   3.186810   0.000000  24.420492   0.000000   # Zr3+4
 5 1 1   3.188770   0.000000   0.000000   2.475508   # Zr3+4
 6 1 1   3.187970   0.000000   0.000000  24.420492   # Zr3+4
 7 1 1   3.215130   2.475508  13.448000  13.448000   # Zr3+4
 8 1 1   3.213970  24.420492  13.448000  13.448000   # Zr3+4
 9 1 1   3.201450   0.000000  15.923508  13.448000   # Zr3+4
 10 1 1   3.201410   0.000000  10.972492  13.448000   # Zr3+4
 11 1 1   3.201560   0.000000  13.448000  15.923508   # Zr3+4
 12 1 1   3.201470   0.000000  13.448000  10.972492   # Zr3+4
 13 1 1   3.201440  15.923508   0.000000  13.448000   # Zr3+4
 14 1 1   3.201390  10.972492   0.000000  13.448000   # Zr3+4
 15 1 1   3.214930  13.448000   2.475508  13.448000   # Zr3+4
 16 1 1   3.213790  13.448000  24.420492  13.448000   # Zr3+4
 17 1 1   3.201590  13.448000   0.000000  15.923508   # Zr3+4
 18 1 1   3.201550  13.448000   0.000000  10.972492   # Zr3+4
 19 1 1   3.200100  15.923508  13.448000   0.000000   # Zr3+4
 20 1 1   3.200050  10.972492  13.448000   0.000000   # Zr3+4
 21 1 1   3.200120  13.448000  15.923508   0.000000   # Zr3+4
 22 1 1   3.200070  13.448000  10.972492   0.000000   # Zr3+4
 23 1 1   3.214720  13.448000  13.448000   2.475508   # Zr3+4
 24 1 1   3.213470  13.448000  13.448000  24.420492   # Zr3+4
 25 1 2  -1.330120   1.221078   1.221078   1.221078   # O_3
 26 1 2  -1.144050  25.674922  25.674922   1.221078   # O_3
 27 1 2  -1.134830  25.674922   1.221078  25.674922   # O_3
 28 1 2  -1.135880   1.221078  25.674922  25.674922   # O_3
 29 1 2  -1.226720   1.221078   1.221078  25.674922   # O_3
 30 1 2  -1.048080  25.674922  25.674922  25.674922   # O_3
 31 1 2  -1.235780   1.221078  25.674922   1.221078   # O_3
 32 1 2  -1.234790  25.674922   1.221078   1.221078   # O_3
 33 1 2  -1.273340   1.221078  14.669078  14.669078   # O_3
 34 1 2  -1.179010  25.674922  12.226922  14.669078   # O_3
 35 1 2  -1.179130  25.674922  14.669078  12.226922   # O_3
 36 1 2  -1.273610   1.221078  12.226922  12.226922   # O_3
 37 1 2  -1.273600   1.221078  14.669078  12.226922   # O_3
 38 1 2  -1.178810  25.674922  12.226922  12.226922   # O_3
 39 1 2  -1.273580   1.221078  12.226922  14.669078   # O_3
 40 1 2  -1.179230  25.674922  14.669078  14.669078   # O_3
 41 1 2  -1.273030  14.669078   1.221078  14.669078   # O_3
 42 1 2  -1.179760  12.226922  25.674922  14.669078   # O_3
 43 1 2  -1.273210  12.226922   1.221078  12.226922   # O_3
 44 1 2  -1.179770  14.669078  25.674922  12.226922   # O_3
 45 1 2  -1.273240  14.669078   1.221078  12.226922   # O_3
 46 1 2  -1.179650  12.226922  25.674922  12.226922   # O_3
 47 1 2  -1.180110  14.669078  25.674922  14.669078   # O_3
 48 1 2  -1.273260  12.226922   1.221078  14.669078   # O_3
 49 1 2  -1.275670  14.669078  14.669078   1.221078   # O_3
 50 1 2  -1.275900  12.226922  12.226922   1.221078   # O_3
 51 1 2  -1.172840  12.226922  14.669078  25.674922   # O_3
 52 1 2  -1.172760  14.669078  12.226922  25.674922   # O_3
 53 1 2  -1.173810  14.669078  14.669078  25.674922   # O_3
 54 1 2  -1.173360  12.226922  12.226922  25.674922   # O_3
 55 1 2  -1.275910  14.669078  12.226922   1.221078   # O_3
 56 1 2  -1.275910  12.226922  14.669078   1.221078   # O_3
 57 1 2  -0.685240   3.566410   0.000000   1.933822   # O_3
 58 1 3   0.513966   3.152211   0.000000   3.152211   # C_3
 59 1 2  -0.684384   1.933822   0.000000   3.566410   # O_3
 60 1 3  -0.240948   4.209224   0.000000   4.209224   # C_3
 61 1 3   0.144386   5.535197   0.000000   3.891851   # C_3
 62 1 3   0.144571   3.891851   0.000000   5.535197   # C_3
 63 1 3  -0.209564   6.508832   0.000000   4.827832   # C_3
 64 1 4  -0.030595   5.779950   0.000000   2.996214   # H_
 65 1 3  -0.210068   4.827832   0.000000   6.508832   # C_3
 66 1 4  -0.029651   2.996214   0.000000   5.779950   # H_
 67 1 3   0.112170   6.204907   0.000000   6.204907   # C_3
 68 1 3  -0.045877   7.243093   0.000000   7.243093   # C_3
 69 1 4   0.083141   7.399090   0.000000   4.558872   # H_
 70 1 3   0.015339   8.620168   0.000000   6.939168   # C_3
 71 1 4   0.077131   4.558872   0.000000   7.399090   # H_
 72 1 3  -0.078699   6.939168   0.000000   8.620168   # C_3
 73 1 3  -0.024418   9.556149   0.000000   7.912803   # C_3
 74 1 5  -0.215782   9.066104   0.697951   5.657843   # N_3
 75 1 3   0.021283   7.912803   0.000000   9.556149   # C_3
 76 1 4   0.028961   6.048910   0.000000   8.889128   # H_
 77 1 3  -0.133309   9.238776   0.000000   9.238776   # C_3
 78 1 3   0.469898  10.295789   0.000000  10.295789   # C_3
 79 1 4   0.028324  10.451786   0.000000   7.668050   # H_
 80 1 4   0.012591   7.668050   0.000000  10.451786   # H_
 81 1 2  -0.669758  11.514178   0.000000   9.881590   # O_3
 82 1 2  -0.670724   9.881590   0.000000  11.514178   # O_3
 83 1 4   0.086093   9.391007   1.668628   5.920348   # H_
 84 1 3   0.252419  10.114779  26.794871   4.945636   # C_3
 85 1 3  -0.380786  11.395028   0.697951   4.733696   # C_3
 86 1 3  -0.035961  11.165605   1.965829   3.840480   # C_3
 87 1 4   0.015583  10.101869   2.296649   3.880555   # H_
 88 1 4  -0.016818  11.351188   1.800956   2.793688   # H_
 89 1 4   0.022647  11.810034   2.820852   4.257368   # H_
 90 1 4   0.013411   9.650823  26.472119   4.011538   # H_
 91 1 4   0.013399  10.392883  25.878255   5.506418   # H_
 92 1 4   0.182539  12.000995  26.853773   4.152742   # H_
 93 1 4   0.081816  11.887225   0.962877   5.713517   # H_
 94 1 2  -0.675899  23.329590   0.000000   1.933822   # O_3
 95 1 3   0.497430  23.743789   0.000000   3.152211   # C_3
 96 1 2  -0.609595  24.962178   0.000000   3.566410   # O_3
 97 1 3  -0.197710  22.686776   0.000000   4.209224   # C_3
 98 1 3   0.115865  21.360803   0.000000   3.891851   # C_3
 99 1 3   0.112465  23.004149   0.000000   5.535197   # C_3
 100 1 3  -0.178054  20.387168   0.000000   4.827832   # C_3
 101 1 4  -0.017656  21.116050   0.000000   2.996214   # H_
 102 1 3  -0.165738  22.068168   0.000000   6.508832   # C_3
 103 1 4   0.017107  23.899786   0.000000   5.779950   # H_
 104 1 3   0.080017  20.691093   0.000000   6.204907   # C_3
 105 1 3  -0.001859  19.652907   0.000000   7.243093   # C_3
 106 1 4   0.073577  19.496910   0.000000   4.558872   # H_
 107 1 3  -0.059387  18.275832   0.000000   6.939168   # C_3
 108 1 4   0.079397  22.337128   0.000000   7.399090   # H_
 109 1 3  -0.114515  19.956832   0.000000   8.620168   # C_3
 110 1 3   0.026497  17.339851   0.000000   7.912803   # C_3
 111 1 5  -0.006429  17.829896  26.198049   5.657843   # N_3
 112 1 3   0.058908  18.983197   0.000000   9.556149   # C_3
 113 1 4   0.052853  20.847090   0.000000   8.889128   # H_
 114 1 3  -0.164628  17.657224   0.000000   9.238776   # C_3
 115 1 3   0.481416  16.600211   0.000000  10.295789   # C_3
 116 1 4   0.011257  16.444214   0.000000   7.668050   # H_
 117 1 4   0.005208  19.227950   0.000000  10.451786   # H_
 118 1 2  -0.672509  15.381822   0.000000   9.881590   # O_3
 119 1 2  -0.671953  17.014410   0.000000  11.514178   # O_3
 120 1 4   0.098678  17.504993  25.227372   5.920348   # H_
 121 1 3  -0.310916  16.781221   0.101129   4.945636   # C_3
 122 1 3   0.282664  15.500972  26.198049   4.733696   # C_3
 123 1 3  -0.248771  15.730395  24.930171   3.840480   # C_3
 124 1 4   0.099646  16.794131  24.599351   3.880555   # H_
 125 1 4   0.092630  15.544812  25.095044   2.793688   # H_
 126 1 4   0.075597  15.085966  24.075148   4.257368   # H_
 127 1 4   0.064189  17.245177   0.423881   4.011538   # H_
 128 1 4   0.084365  16.503117   1.017745   5.506418   # H_
 129 1 4  -0.128488  14.895005   0.042227   4.152742   # H_
 130 1 4   0.007791  15.008775  25.933123   5.713517   # H_
 131 1 2  -0.597192  23.329590   0.000000  24.962178   # O_3
 132 1 3   0.484503  23.743789   0.000000  23.743789   # C_3
 133 1 2  -0.602144  24.962178   0.000000  23.329590   # O_3
 134 1 3  -0.164830  22.686776   0.000000  22.686776   # C_3
 135 1 3   0.098409  21.360803   0.000000  23.004149   # C_3
 136 1 3   0.099439  23.004149   0.000000  21.360803   # C_3
 137 1 3  -0.152592  20.387168   0.000000  22.068168   # C_3
 138 1 4   0.025876  21.116050   0.000000  23.899786   # H_
 139 1 3  -0.155202  22.068168   0.000000  20.387168   # C_3
 140 1 4   0.023447  23.899786   0.000000  21.116050   # H_
 141 1 3   0.086640  20.691093   0.000000  20.691093   # C_3
 142 1 3  -0.023813  19.652907   0.000000  19.652907   # C_3
 143 1 4   0.080100  19.496910   0.000000  22.337128   # H_
 144 1 3   0.011232  18.275832   0.000000  19.956832   # C_3
 145 1 4   0.075957  22.337128   0.000000  19.496910   # H_
 146 1 3  -0.090534  19.956832   0.000000  18.275832   # C_3
 147 1 3  -0.016810  17.339851   0.000000  18.983197   # C_3
 148 1 5  -0.208577  17.829896   0.697951  21.238157   # N_3
 149 1 3   0.033757  18.983197   0.000000  17.339851   # C_3
 150 1 4   0.041904  20.847090   0.000000  18.006872   # H_
 151 1 3  -0.138401  17.657224   0.000000  17.657224   # C_3
 152 1 3   0.472527  16.600211   0.000000  16.600211   # C_3
 153 1 4   0.026874  16.444214   0.000000  19.227950   # H_
 154 1 4   0.010958  19.227950   0.000000  16.444214   # H_
 155 1 2  -0.669639  15.381822   0.000000  17.014410   # O_3
 156 1 2  -0.670381  17.014410   0.000000  15.381822   # O_3
 157 1 4   0.092320  17.504993   1.668628  20.975384   # H_
 158 1 3   0.240021  16.781221  26.794871  21.950364   # C_3
 159 1 3  -0.361659  15.500972   0.697951  22.162304   # C_3
 160 1 3  -0.054822  15.730395   1.965829  23.055520   # C_3
 161 1 4   0.045180  16.794131   2.296649  23.015176   # H_
 162 1 4   0.029744  15.544812   1.800956  24.102312   # H_
 163 1 4   0.037020  15.085966   2.820852  22.638632   # H_
 164 1 4   0.036620  17.245177  26.472119  22.884193   # H_
 165 1 4   0.019618  16.503117  25.878255  21.389582   # H_
 166 1 4   0.187828  14.895005  26.853773  22.743258   # H_
 167 1 4   0.079002  15.008775   0.962877  21.182483   # H_
 168 1 2  -0.603958   3.566410   0.000000  24.962178   # O_3
 169 1 3   0.495936   3.152211   0.000000  23.743789   # C_3
 170 1 2  -0.674226   1.933822   0.000000  23.329590   # O_3
 171 1 3  -0.193552   4.209224   0.000000  22.686776   # C_3
 172 1 3   0.111020   5.535197   0.000000  23.004149   # C_3
 173 1 3   0.111336   3.891851   0.000000  21.360803   # C_3
 174 1 3  -0.165551   6.508832   0.000000  22.068168   # C_3
 175 1 4   0.019784   5.779950   0.000000  23.899786   # H_
 176 1 3  -0.170817   4.827832   0.000000  20.387168   # C_3
 177 1 4  -0.014726   2.996214   0.000000  21.116050   # H_
 178 1 3   0.078413   6.204907   0.000000  20.691093   # C_3
 179 1 3  -0.002788   7.243093   0.000000  19.652907   # C_3
 180 1 4   0.082638   7.399090   0.000000  22.337128   # H_
 181 1 3  -0.056888   8.620168   0.000000  19.956832   # C_3
 182 1 4   0.067125   4.558872   0.000000  19.496910   # H_
 183 1 3  -0.112839   6.939168   0.000000  18.275832   # C_3
 184 1 3   0.024863   9.556149   0.000000  18.983197   # C_3
 185 1 5  -0.004077   9.066104  26.198049  21.238157   # N_3
 186 1 3   0.056268   7.912803   0.000000  17.339851   # C_3
 187 1 4   0.046571   6.048910   0.000000  18.006872   # H_
 188 1 3  -0.163191   9.238776   0.000000  17.657224   # C_3
 189 1 3   0.480925  10.295789   0.000000  16.600211   # C_3
 190 1 4   0.012214  10.451786   0.000000  19.227950   # H_
 191 1 4   0.004445   7.668050   0.000000  16.444214   # H_
 192 1 2  -0.672157  11.514178   0.000000  17.014410   # O_3
 193 1 2  -0.672271   9.881590   0.000000  15.381822   # O_3
 194 1 4   0.102173   9.391007  25.227372  20.975384   # H_
 195 1 3  -0.313629  10.114779   0.101129  21.950364   # C_3
 196 1 3   0.289794  11.395028  26.198049  22.162304   # C_3
 197 1 3  -0.262785  11.165605  24.930171  23.055520   # C_3
 198 1 4   0.124830  10.101869  24.599351  23.015176   # H_
 199 1 4   0.136083  11.351188  25.095044  24.102312   # H_
 200 1 4   0.087771  11.810034  24.075148  22.638632   # H_
 201 1 4   0.085480   9.650823   0.423881  22.884193   # H_
 202 1 4   0.088121  10.392883   1.017745  21.389582   # H_
 203 1 4  -0.117555  12.000995   0.042227  22.743258   # H_
 204 1 4   0.006426  11.887225  25.933123  21.182483   # H_
 205 1 2  -0.687361   1.933822   3.566410   0.000000   # O_3
 206 1 3   0.506936   3.152211   3.152211   0.000000   # C_3
 207 1 2  -0.687300   3.566410   1.933822   0.000000   # O_3
 208 1 3  -0.225308   4.209224   4.209224   0.000000   # C_3
 209 1 3   0.119138   3.891851   5.535197   0.000000   # C_3
 210 1 3   0.120257   5.535197   3.891851   0.000000   # C_3
 211 1 3  -0.182514   4.827832   6.508832   0.000000   # C_3
 212 1 4  -0.024265   2.996214   5.779950   0.000000   # H_
 213 1 3  -0.182193   6.508832   4.827832   0.000000   # C_3
 214 1 4  -0.023499   5.779950   2.996214   0.000000   # H_
 215 1 3   0.071304   6.204907   6.204907   0.000000   # C_3
 216 1 3   0.003403   7.243093   7.243093   0.000000   # C_3
 217 1 4   0.060744   4.558872   7.399090   0.000000   # H_
 218 1 3  -0.090305   6.939168   8.620168   0.000000   # C_3
 219 1 4   0.064500   7.399090   4.558872   0.000000   # H_
 220 1 3  -0.126490   8.620168   6.939168   0.000000   # C_3
 221 1 3   0.044699   7.912803   9.556149   0.000000   # C_3
 222 1 5   0.011658   5.534390   9.211880  26.788685   # N_3
 223 1 3   0.065625   9.556149   7.912803   0.000000   # C_3
 224 1 4   0.043751   8.889128   6.048910   0.000000   # H_
 225 1 3  -0.179673   9.238776   9.238776   0.000000   # C_3
 226 1 3   0.484681  10.295789  10.295789   0.000000   # C_3
 227 1 4  -0.003657   7.668050  10.451786   0.000000   # H_
 228 1 4  -0.004754  10.451786   7.668050   0.000000   # H_
 229 1 2  -0.679913   9.881590  11.514178   0.000000   # O_3
 230 1 2  -0.678890  11.514178   9.881590   0.000000   # O_3
 231 1 4  -0.029365   5.398565   9.840171   0.694993   # H_
 232 1 3  -0.037026   5.321374   9.936189  25.513277   # C_3
 233 1 3  -0.024517   3.859038  10.381049  25.386328   # C_3
 234 1 3  -0.172169   3.744730  11.670981  24.596123   # C_3
 235 1 4   0.083506   4.331601  12.434290  25.147222   # H_
 236 1 4   0.066993   2.727792  12.031119  24.403279   # H_
 237 1 4   0.067991   4.266244  11.511488  23.671976   # H_
 238 1 4   0.074576   5.654615   9.262444  24.697521   # H_
 239 1 4   0.079120   5.951278  10.819185  25.493105   # H_
 240 1 4   0.072258   3.417137  10.528977  26.405417   # H_
 241 1 4   0.049049   3.270823   9.581162  24.834153   # H_
 242 1 2  -0.680381   1.933822  23.329590   0.000000   # O_3
 243 1 3   0.503376   3.152211  23.743789   0.000000   # C_3
 244 1 2  -0.616016   3.566410  24.962178   0.000000   # O_3
 245 1 3  -0.217375   4.209224  22.686776   0.000000   # C_3
 246 1 3   0.141348   3.891851  21.360803   0.000000   # C_3
 247 1 3   0.135541   5.535197  23.004149   0.000000   # C_3
 248 1 3  -0.208824   4.827832  20.387168   0.000000   # C_3
 249 1 4  -0.025414   2.996214  21.116050   0.000000   # H_
 250 1 3  -0.194926   6.508832  22.068168   0.000000   # C_3
 251 1 4   0.007004   5.779950  23.899786   0.000000   # H_
 252 1 3   0.116557   6.204907  20.691093   0.000000   # C_3
 253 1 3  -0.048649   7.243093  19.652907   0.000000   # C_3
 254 1 4   0.096927   4.558872  19.496910   0.000000   # H_
 255 1 3   0.031791   6.939168  18.275832   0.000000   # C_3
 256 1 4   0.088453   7.399090  22.337128   0.000000   # H_
 257 1 3  -0.074509   8.620168  19.956832   0.000000   # C_3
 258 1 3  -0.033465   7.912803  17.339851   0.000000   # C_3
 259 1 5  -0.231733   5.534390  17.684120   0.107315   # N_3
 260 1 3   0.019807   9.556149  18.983197   0.000000   # C_3
 261 1 4   0.036871   8.889128  20.847090   0.000000   # H_
 262 1 3  -0.129211   9.238776  17.657224   0.000000   # C_3
 263 1 3   0.468625  10.295789  16.600211   0.000000   # C_3
 264 1 4   0.031861   7.668050  16.444214   0.000000   # H_
 265 1 4   0.016435  10.451786  19.227950   0.000000   # H_
 266 1 2  -0.674352   9.881590  15.381822   0.000000   # O_3
 267 1 2  -0.673477  11.514178  17.014410   0.000000   # O_3
 268 1 4   0.206802   5.398565  17.055829  26.201007   # H_
 269 1 3  -0.038489   5.321374  16.959811   1.382723   # C_3
 270 1 3  -0.043665   3.859038  16.514951   1.509672   # C_3
 271 1 3  -0.161056   3.744730  15.225019   2.299877   # C_3
 272 1 4   0.029045   4.331601  14.461710   1.748778   # H_
 273 1 4   0.026307   2.727792  14.864881   2.492721   # H_
 274 1 4   0.056170   4.266244  15.384512   3.224024   # H_
 275 1 4   0.046384   5.654615  17.633556   2.198479   # H_
 276 1 4   0.022625   5.951278  16.076815   1.402895   # H_
 277 1 4  -0.012514   3.417137  16.367023   0.490583   # H_
 278 1 4   0.020525   3.270823  17.314569   2.061847   # H_
 279 1 2  -0.605853  24.962178  23.329590   0.000000   # O_3
 280 1 3   0.479261  23.743789  23.743789   0.000000   # C_3
 281 1 2  -0.606701  23.329590  24.962178   0.000000   # O_3
 282 1 3  -0.154043  22.686776  22.686776   0.000000   # C_3
 283 1 3   0.077435  23.004149  21.360803   0.000000   # C_3
 284 1 3   0.078679  21.360803  23.004149   0.000000   # C_3
 285 1 3  -0.130596  22.068168  20.387168   0.000000   # C_3
 286 1 4   0.028108  23.899786  21.116050   0.000000   # H_
 287 1 3  -0.131373  20.387168  22.068168   0.000000   # C_3
 288 1 4   0.027758  21.116050  23.899786   0.000000   # H_
 289 1 3   0.049324  20.691093  20.691093   0.000000   # C_3
 290 1 3   0.022408  19.652907  19.652907   0.000000   # C_3
 291 1 4   0.060051  22.337128  19.496910   0.000000   # H_
 292 1 3  -0.089844  19.956832  18.275832   0.000000   # C_3
 293 1 4   0.064396  19.496910  22.337128   0.000000   # H_
 294 1 3  -0.135662  18.275832  19.956832   0.000000   # C_3
 295 1 3   0.049243  18.983197  17.339851   0.000000   # C_3
 296 1 5   0.011791  21.361610  17.684120  26.788685   # N_3
 297 1 3   0.075635  17.339851  18.983197   0.000000   # C_3
 298 1 4   0.055483  18.006872  20.847090   0.000000   # H_
 299 1 3  -0.182334  17.657224  17.657224   0.000000   # C_3
 300 1 3   0.486548  16.600211  16.600211   0.000000   # C_3
 301 1 4  -0.002740  19.227950  16.444214   0.000000   # H_
 302 1 4  -0.005617  16.444214  19.227950   0.000000   # H_
 303 1 2  -0.679066  17.014410  15.381822   0.000000   # O_3
 304 1 2  -0.678359  15.381822  17.014410   0.000000   # O_3
 305 1 4  -0.015569  21.497435  17.055829   0.694993   # H_
 306 1 3  -0.033639  21.574626  16.959811  25.513277   # C_3
 307 1 3  -0.022771  23.036962  16.514951  25.386328   # C_3
 308 1 3  -0.175927  23.151270  15.225019  24.596123   # C_3
 309 1 4   0.096864  22.564399  14.461710  25.147222   # H_
 310 1 4   0.112093  24.168208  14.864881  24.403279   # H_
 311 1 4   0.083514  22.629756  15.384512  23.671976   # H_
 312 1 4   0.081860  21.241385  17.633556  24.697521   # H_
 313 1 4   0.079797  20.944722  16.076815  25.493105   # H_
 314 1 4   0.100085  23.478863  16.367023  26.405417   # H_
 315 1 4   0.081425  23.625177  17.314569  24.834153   # H_
 316 1 2  -0.614657  24.962178   3.566410   0.000000   # O_3
 317 1 3   0.503312  23.743789   3.152211   0.000000   # C_3
 318 1 2  -0.680584  23.329590   1.933822   0.000000   # O_3
 319 1 3  -0.216624  22.686776   4.209224   0.000000   # C_3
 320 1 3   0.139751  23.004149   5.535197   0.000000   # C_3
 321 1 3   0.137014  21.360803   3.891851   0.000000   # C_3
 322 1 3  -0.199899  22.068168   6.508832   0.000000   # C_3
 323 1 4   0.008394  23.899786   5.779950   0.000000   # H_
 324 1 3  -0.202432  20.387168   4.827832   0.000000   # C_3
 325 1 4  -0.025517  21.116050   2.996214   0.000000   # H_
 326 1 3   0.117343  20.691093   6.204907   0.000000   # C_3
 327 1 3  -0.050802  19.652907   7.243093   0.000000   # C_3
 328 1 4   0.107565  22.337128   7.399090   0.000000   # H_
 329 1 3   0.035985  19.956832   8.620168   0.000000   # C_3
 330 1 4   0.077199  19.496910   4.558872   0.000000   # H_
 331 1 3  -0.071475  18.275832   6.939168   0.000000   # C_3
 332 1 3  -0.036126  18.983197   9.556149   0.000000   # C_3
 333 1 5  -0.229719  21.361610   9.211880   0.107315   # N_3
 334 1 3   0.016198  17.339851   7.912803   0.000000   # C_3
 335 1 4   0.030266  18.006872   6.048910   0.000000   # H_
 336 1 3  -0.126521  17.657224   9.238776   0.000000   # C_3
 337 1 3   0.467840  16.600211  10.295789   0.000000   # C_3
 338 1 4   0.034379  19.227950  10.451786   0.000000   # H_
 339 1 4   0.016126  16.444214   7.668050   0.000000   # H_
 340 1 2  -0.673367  17.014410  11.514178   0.000000   # O_3
 341 1 2  -0.673627  15.381822   9.881590   0.000000   # O_3
 342 1 4   0.215962  21.497435   9.840171  26.201007   # H_
 343 1 3  -0.034555  21.574626   9.936189   1.382723   # C_3
 344 1 3  -0.042054  23.036962  10.381049   1.509672   # C_3
 345 1 3  -0.164713  23.151270  11.670981   2.299877   # C_3
 346 1 4   0.043388  22.564399  12.434290   1.748778   # H_
 347 1 4   0.072340  24.168208  12.031119   2.492721   # H_
 348 1 4   0.070949  22.629756  11.511488   3.224024   # H_
 349 1 4   0.050366  21.241385   9.262444   2.198479   # H_
 350 1 4   0.023509  20.944722  10.819185   1.402895   # H_
 351 1 4   0.016468  23.478863  10.528977   0.490583   # H_
 352 1 4   0.051760  23.625177   9.581162   2.061847   # H_
 353 1 2  -0.684862   0.000000   1.933822   3.566410   # O_3
 354 1 3   0.514318   0.000000   3.152211   3.152211   # C_3
 355 1 2  -0.685513   0.000000   3.566410   1.933822   # O_3
 356 1 3  -0.242291   0.000000   4.209224   4.209224   # C_3
 357 1 3   0.146122   0.000000   3.891851   5.535197   # C_3
 358 1 3   0.146371   0.000000   5.535197   3.891851   # C_3
 359 1 3  -0.211726   0.000000   4.827832   6.508832   # C_3
 360 1 4  -0.030673   0.000000   2.996214   5.779950   # H_
 361 1 3  -0.212064   0.000000   6.508832   4.827832   # C_3
 362 1 4  -0.030410   0.000000   5.779950   2.996214   # H_
 363 1 3   0.114424   0.000000   6.204907   6.204907   # C_3
 364 1 3  -0.047947   0.000000   7.243093   7.243093   # C_3
 365 1 4   0.084762   0.000000   4.558872   7.399090   # H_
 366 1 3   0.017775   0.000000   6.939168   8.620168   # C_3
 367 1 4   0.078864   0.000000   7.399090   4.558872   # H_
 368 1 3  -0.075041   0.000000   8.620168   6.939168   # C_3
 369 1 3  -0.027266   0.000000   7.912803   9.556149   # C_3
 370 1 5  -0.220285   0.660297   5.649236   9.074172   # N_3
 371 1 3   0.019275   0.000000   9.556149   7.912803   # C_3
 372 1 4   0.030921   0.000000   8.889128   6.048910   # H_
 373 1 3  -0.130130   0.000000   9.238776   9.238776   # C_3
 374 1 3   0.468866   0.000000  10.295789  10.295789   # C_3
 375 1 4   0.029716   0.000000   7.668050  10.451786   # H_
 376 1 4   0.017920   0.000000  10.451786   7.668050   # H_
 377 1 2  -0.669636   0.000000   9.881590  11.514178   # O_3
 378 1 2  -0.668205   0.000000  11.514178   9.881590   # O_3
 379 1 4   0.088795   1.630973   5.901251   9.371642   # H_
 380 1 3   0.269004  26.718755   4.973070  10.111551   # C_3
 381 1 3  -0.400611   0.611346   4.648167  11.349843   # C_3
 382 1 3  -0.018574   1.982235   3.994594  11.081421   # C_3
 383 1 4  -0.008381   1.826238   3.229672  10.287182   # H_
 384 1 4   0.000325   2.386213   3.454522  11.964955   # H_
 385 1 4   0.023419   2.740164   4.793136  10.741187   # H_
 386 1 4   0.007909  26.323922   4.093571   9.598913   # H_
 387 1 4   0.012222  25.845173   5.579037  10.425965   # H_
 388 1 4   0.186615  26.857270   3.864686  11.792820   # H_
 389 1 4   0.077993   0.699296   5.542459  12.027622   # H_
 390 1 2  -0.674784   0.000000   1.933822  23.329590   # O_3
 391 1 3   0.496273   0.000000   3.152211  23.743789   # C_3
 392 1 2  -0.604044   0.000000   3.566410  24.962178   # O_3
 393 1 3  -0.194640   0.000000   4.209224  22.686776   # C_3
 394 1 3   0.113986   0.000000   3.891851  21.360803   # C_3
 395 1 3   0.111908   0.000000   5.535197  23.004149   # C_3
 396 1 3  -0.175588   0.000000   4.827832  20.387168   # C_3
 397 1 4  -0.016523   0.000000   2.996214  21.116050   # H_
 398 1 3  -0.163372   0.000000   6.508832  22.068168   # C_3
 399 1 4   0.021556   0.000000   5.779950  23.899786   # H_
 400 1 3   0.079751   0.000000   6.204907  20.691093   # C_3
 401 1 3   0.000102   0.000000   7.243093  19.652907   # C_3
 402 1 4   0.072025   0.000000   4.558872  19.496910   # H_
 403 1 3  -0.060810   0.000000   6.939168  18.275832   # C_3
 404 1 4   0.083522   0.000000   7.399090  22.337128   # H_
 405 1 3  -0.113415   0.000000   8.620168  19.956832   # C_3
 406 1 3   0.027216   0.000000   7.912803  17.339851   # C_3
 407 1 5  -0.003271  26.235703   5.649236  17.821828   # N_3
 408 1 3   0.059790   0.000000   9.556149  18.983197   # C_3
 409 1 4   0.058137   0.000000   8.889128  20.847090   # H_
 410 1 3  -0.163422   0.000000   9.238776  17.657224   # C_3
 411 1 3   0.481029   0.000000  10.295789  16.600211   # C_3
 412 1 4   0.010641   0.000000   7.668050  16.444214   # H_
 413 1 4   0.010728   0.000000  10.451786  19.227950   # H_
 414 1 2  -0.672711   0.000000   9.881590  15.381822   # O_3
 415 1 2  -0.668894   0.000000  11.514178  17.014410   # O_3
 416 1 4   0.099797  25.265027   5.901251  17.524358   # H_
 417 1 3  -0.325282   0.177245   4.973070  16.784449   # C_3
 418 1 3   0.303388  26.284654   4.648167  15.546157   # C_3
 419 1 3  -0.250661  24.914034   3.994594  15.814579   # C_3
 420 1 4   0.104885  25.070031   3.229672  16.608818   # H_
 421 1 4   0.081353  24.509787   3.454522  14.931045   # H_
 422 1 4   0.087328  24.155836   4.793136  16.154813   # H_
 423 1 4   0.071974   0.572078   4.093571  17.297087   # H_
 424 1 4   0.086164   1.050827   5.579037  16.470035   # H_
 425 1 4  -0.136468   0.038730   3.864686  15.103180   # H_
 426 1 4   0.007142  26.196704   5.542459  14.868378   # H_
 427 1 2  -0.603427   0.000000  24.962178  23.329590   # O_3
 428 1 3   0.485310   0.000000  23.743789  23.743789   # C_3
 429 1 2  -0.597665   0.000000  23.329590  24.962178   # O_3
 430 1 3  -0.167443   0.000000  22.686776  22.686776   # C_3
 431 1 3   0.101530   0.000000  23.004149  21.360803   # C_3
 432 1 3   0.103175   0.000000  21.360803  23.004149   # C_3
 433 1 3  -0.156757   0.000000  22.068168  20.387168   # C_3
 434 1 4   0.022012   0.000000  23.899786  21.116050   # H_
 435 1 3  -0.157959   0.000000  20.387168  22.068168   # C_3
 436 1 4   0.025838   0.000000  21.116050  23.899786   # H_
 437 1 3   0.090465   0.000000  20.691093  20.691093   # C_3
 438 1 3  -0.025372   0.000000  19.652907  19.652907   # C_3
 439 1 4   0.081082   0.000000  22.337128  19.496910   # H_
 440 1 3   0.013609   0.000000  19.956832  18.275832   # C_3
 441 1 4   0.082194   0.000000  19.496910  22.337128   # H_
 442 1 3  -0.086206   0.000000  18.275832  19.956832   # C_3
 443 1 3  -0.019484   0.000000  18.983197  17.339851   # C_3
 444 1 5  -0.213571   0.660297  21.246764  17.821828   # N_3
 445 1 3   0.032638   0.000000  17.339851  18.983197   # C_3
 446 1 4   0.048468   0.000000  18.006872  20.847090   # H_
 447 1 3  -0.134576   0.000000  17.657224  17.657224   # C_3
 448 1 3   0.471482   0.000000  16.600211  16.600211   # C_3
 449 1 4   0.028209   0.000000  19.227950  16.444214   # H_
 450 1 4   0.019749   0.000000  16.444214  19.227950   # H_
 451 1 2  -0.669409   0.000000  17.014410  15.381822   # O_3
 452 1 2  -0.666555   0.000000  15.381822  17.014410   # O_3
 453 1 4   0.094938   1.630973  20.994749  17.524358   # H_
 454 1 3   0.258133  26.718755  21.922930  16.784449   # C_3
 455 1 3  -0.385917   0.611346  22.247833  15.546157   # C_3
 456 1 3  -0.029836   1.982235  22.901406  15.814579   # C_3
 457 1 4   0.029017   1.826238  23.666328  16.608818   # H_
 458 1 4   0.022962   2.386213  23.441478  14.931045   # H_
 459 1 4   0.036519   2.740164  22.102864  16.154813   # H_
 460 1 4   0.027581  26.323922  22.802429  17.297087   # H_
 461 1 4   0.017334  25.845173  21.316963  16.470035   # H_
 462 1 4   0.196167  26.857270  23.031314  15.103180   # H_
 463 1 4   0.076436   0.699296  21.353541  14.868378   # H_
 464 1 2  -0.610634   0.000000  24.962178   3.566410   # O_3
 465 1 3   0.496972   0.000000  23.743789   3.152211   # C_3
 466 1 2  -0.675912   0.000000  23.329590   1.933822   # O_3
 467 1 3  -0.196582   0.000000  22.686776   4.209224   # C_3
 468 1 3   0.112108   0.000000  23.004149   5.535197   # C_3
 469 1 3   0.112864   0.000000  21.360803   3.891851   # C_3
 470 1 3  -0.167424   0.000000  22.068168   6.508832   # C_3
 471 1 4   0.016131   0.000000  23.899786   5.779950   # H_
 472 1 3  -0.172289   0.000000  20.387168   4.827832   # C_3
 473 1 4  -0.015358   0.000000  21.116050   2.996214   # H_
 474 1 3   0.078872   0.000000  20.691093   6.204907   # C_3
 475 1 3  -0.003302   0.000000  19.652907   7.243093   # C_3
 476 1 4   0.080947   0.000000  22.337128   7.399090   # H_
 477 1 3  -0.058163   0.000000  19.956832   8.620168   # C_3
 478 1 4   0.067997   0.000000  19.496910   4.558872   # H_
 479 1 3  -0.111557   0.000000  18.275832   6.939168   # C_3
 480 1 3   0.024841   0.000000  18.983197   9.556149   # C_3
 481 1 5  -0.001789  26.235703  21.246764   9.074172   # N_3
 482 1 3   0.055389   0.000000  17.339851   7.912803   # C_3
 483 1 4   0.046711   0.000000  18.006872   6.048910   # H_
 484 1 3  -0.162346   0.000000  17.657224   9.238776   # C_3
 485 1 3   0.480341   0.000000  16.600211  10.295789   # C_3
 486 1 4   0.011683   0.000000  19.227950  10.451786   # H_
 487 1 4   0.006748   0.000000  16.444214   7.668050   # H_
 488 1 2  -0.672495   0.000000  17.014410  11.514178   # O_3