 (written by mofun)

1200 atoms
0 bonds
0 angles
0 dihedrals
0 impropers

4 atom types
   0.000000  20.700400 xlo xhi
   0.000000  20.700400 ylo yhi
   0.000000  20.700400 zlo zhi

Masses

 1 91.2240   # Zr3+4
 2 15.9994   # O_3
 3 12.0107   # C_3
 4 1.0079   # H_

Pair Coeffs

 1   0.069000   2.783168 # Zr3+4
 2   0.060000   3.118146 # O_3
 3   0.105000   3.430851 # C_3
 4   0.044000   2.571134 # H_

Atoms

 1 1 1   3.170080   2.481771   0.000000   0.000000   # Zr3+4
 2 1 1   3.190320   2.481771  10.350200  10.350200   # Zr3+4
 3 1 1   3.177800  12.831971   0.000000  10.350200   # Zr3+4
 4 1 1   3.181570  12.831971  10.350200   0.000000   # Zr3+4
 5 1 1   3.168820  18.218629   0.000000   0.000000   # Zr3+4
 6 1 1   3.190960  18.218629  10.350200  10.350200   # Zr3+4
 7 1 1   3.180360   7.868429   0.000000  10.350200   # Zr3+4
 8 1 1   3.179420   7.868429  10.350200   0.000000   # Zr3+4
 9 1 1   3.169790   0.000000   2.481771   0.000000   # Zr3+4
 10 1 1   3.145830   0.000000  12.831971  10.350200   # Zr3+4
 11 1 1   3.190390  10.350200   2.481771  10.350200   # Zr3+4
 12 1 1   3.181330  10.350200  12.831971   0.000000   # Zr3+4
 13 1 1   3.168380   0.000000  18.218629   0.000000   # Zr3+4
 14 1 1   3.212270   0.000000   7.868429  10.350200   # Zr3+4
 15 1 1   3.190900  10.350200  18.218629  10.350200   # Zr3+4
 16 1 1   3.179550  10.350200   7.868429   0.000000   # Zr3+4
 17 1 1   3.200360   0.000000   0.000000   2.481771   # Zr3+4
 18 1 1   3.177590   0.000000  10.350200  12.831971   # Zr3+4
 19 1 1   3.146040  10.350200   0.000000  12.831971   # Zr3+4
 20 1 1   3.191080  10.350200  10.350200   2.481771   # Zr3+4
 21 1 1   3.136610   0.000000   0.000000  18.218629   # Zr3+4
 22 1 1   3.180090   0.000000  10.350200   7.868429   # Zr3+4
 23 1 1   3.212420  10.350200   0.000000   7.868429   # Zr3+4
 24 1 1   3.191500  10.350200  10.350200  18.218629   # Zr3+4
 25 1 2  -1.313860   1.161292   9.188908   9.188908   # O_3
 26 1 2  -1.230760  11.511492  19.539108   9.188908   # O_3
 27 1 2  -1.338610  11.511492   9.188908  19.539108   # O_3
 28 1 2  -1.313090   9.188908   1.161292   9.188908   # O_3
 29 1 2  -1.338920   9.188908  11.511492  19.539108   # O_3
 30 1 2  -1.193120  19.539108  19.539108   1.161292   # O_3
 31 1 2  -1.229560  19.539108   9.188908  11.511492   # O_3
 32 1 2  -1.360440   1.161292   1.161292   1.161292   # O_3
 33 1 2  -1.416200  11.511492  11.511492   1.161292   # O_3
 34 1 2  -1.360550  19.539108   1.161292   1.161292   # O_3
 35 1 2  -1.453570  19.539108  11.511492  11.511492   # O_3
 36 1 2  -1.537580   9.188908   1.161292  11.511492   # O_3
 37 1 2  -1.424780   9.188908  11.511492   1.161292   # O_3
 38 1 2  -1.365580   1.161292  19.539108   1.161292   # O_3
 39 1 2  -1.408540   1.161292   9.188908  11.511492   # O_3
 40 1 2  -1.456470  11.511492  19.539108  11.511492   # O_3
 41 1 2  -1.424840  11.511492   9.188908   1.161292   # O_3
 42 1 2  -1.328340  19.539108  19.539108  19.539108   # O_3
 43 1 2  -1.314070  19.539108   9.188908   9.188908   # O_3
 44 1 2  -1.317500   9.188908  19.539108   9.188908   # O_3
 45 1 2  -1.345350   9.188908   9.188908  19.539108   # O_3
 46 1 2  -1.493000   1.161292   1.161292  19.539108   # O_3
 47 1 2  -1.537260   1.161292  11.511492   9.188908   # O_3
 48 1 2  -1.408560  11.511492   1.161292   9.188908   # O_3
 49 1 3   0.517211   3.179581   0.000000  17.520819   # C_3
 50 1 2  -0.743782   3.528590   0.000000  18.727859   # O_3
 51 1 2  -0.790862   1.972541   0.000000  17.171810   # O_3
 52 1 3  -0.150759   4.243582   0.000000  16.456818   # C_3
 53 1 3  -0.072683   3.816533   0.000000  15.162836   # C_3
 54 1 4   0.023245   2.700574   0.000000  14.930785   # H_
 55 1 2  -0.272767   4.426988   0.116129  12.807130   # O_3
 56 1 3   0.151985   4.812636   0.000000  14.167768   # C_3
 57 1 3  -0.242090   6.106618   0.000000  14.593782   # C_3
 58 1 3   0.001497   6.532632   0.000000  15.887764   # C_3
 59 1 3   0.017353   5.537564   0.000000  16.883867   # C_3
 60 1 2  -0.071874   5.910999  20.458619  18.246782   # O_3
 61 1 4   0.007233   7.648591   0.000000  16.119815   # H_
 62 1 2  -0.799099   8.377452   0.000000  13.878790   # O_3
 63 1 3   0.548476   7.170619   0.000000  13.529781   # C_3
 64 1 2  -0.777106   6.821610   0.000000  12.322741   # O_3
 65 1 3   0.044804   4.302578   1.476974  12.681272   # C_3
 66 1 3  -0.122597   4.593419   2.432090  14.005063   # C_3
 67 1 4   0.030180   5.061248   1.717719  11.953032   # H_
 68 1 4   0.003110   3.269628   1.629328  12.236834   # H_
 69 1 4   0.078655   3.752569   1.982684  14.266095   # H_
 70 1 3  -0.094219   4.955055   2.706577  15.513087   # C_3
 71 1 4   0.071104   5.600907   2.053066  13.845670   # H_
 72 1 4   0.057058   5.873946   2.277665  15.755488   # H_
 73 1 4   0.047645   5.080085   3.732282  15.395715   # H_
 74 1 3   0.019435   4.190175   2.745701  16.889663   # C_3
 75 1 3   0.013849   5.952607  19.090116  18.246161   # C_3
 76 1 3  -0.071876   4.878049  18.196687  17.572984   # C_3
 77 1 4   0.055645   7.011018  18.768639  18.303501   # H_
 78 1 4   0.095128   5.542325  19.054718  19.204175   # H_
 79 1 4   0.054372   3.900369  18.462894  17.995893   # H_
 80 1 3  -0.043458   4.560091  17.672138  16.036186   # C_3
 81 1 4   0.053745   5.131008  17.324786  18.033360   # H_
 82 1 4   0.032159   4.730662  16.606896  15.953798   # H_
 83 1 4   0.045085   3.449722  17.813108  15.985470   # H_
 84 1 3  -0.129248   5.334700  17.969396  14.723367   # C_3
 85 1 4   0.101522   6.136013  18.484836  15.072582   # H_
 86 1 3  -0.127237   5.630095  17.862582  13.192986   # C_3
 87 1 4   0.107493   4.610600  18.551491  14.443911   # H_
 88 1 4   0.019506   3.845099   3.680117  17.036015   # H_
 89 1 3  -0.280674   5.087744   2.673457  18.057787   # C_3
 90 1 4   0.030929   3.298195   2.181615  17.022560   # H_
 91 1 4   0.105023   5.851382   1.938385  18.069793   # H_
 92 1 4   0.108347   5.542118   3.584895  18.215317   # H_
 93 1 4   0.151486   4.454519   2.436851  18.842953   # H_
 94 1 4   0.090742   5.054210  18.541141  12.547961   # H_
 95 1 4   0.058131   5.458488  16.874138  12.824312   # H_
 96 1 4   0.036170   6.707758  18.114299  12.982256   # H_
 97 1 3   0.554126   3.179581  10.350200   7.170619   # C_3
 98 1 2  -0.658211   3.528590  10.350200   8.377659   # O_3
 99 1 2  -0.670851   1.972541  10.350200   6.821610   # O_3
 100 1 3  -0.183233   4.243582  10.350200   6.106618   # C_3
 101 1 3  -0.031462   3.816533  10.350200   4.812636   # C_3
 102 1 4   0.043619   2.700574  10.350200   4.580585   # H_
 103 1 2  -0.234735   4.454519  10.546854   2.469351   # O_3
 104 1 3   0.160642   4.812636  10.350200   3.817568   # C_3
 105 1 3  -0.194514   6.106618  10.350200   4.243582   # C_3
 106 1 3  -0.029698   6.532632  10.350200   5.537564   # C_3
 107 1 3   0.160203   5.537564  10.350200   6.533667   # C_3
 108 1 2  -0.226009   5.870219  10.393464   7.901550   # O_3
 109 1 4   0.046714   7.648591  10.350200   5.769615   # H_
 110 1 2  -0.744301   8.377452  10.350200   3.528590   # O_3
 111 1 3   0.548082   7.170619  10.350200   3.179581   # C_3
 112 1 2  -0.741935   6.821610  10.350200   1.972541   # O_3
 113 1 3   0.036541   4.375858  11.927570   2.385514   # C_3
 114 1 3  -0.137692   4.677255  12.853292   3.721518   # C_3
 115 1 4   0.032258   5.174272  12.135402   1.658723   # H_
 116 1 4  -0.001739   3.466489  12.118014   1.861380   # H_
 117 1 4   0.086780   3.875943  12.404301   4.034922   # H_
 118 1 3  -0.091972   4.915103  13.034421   5.281914   # C_3
 119 1 4   0.070488   5.669840  12.466195   3.596073   # H_
 120 1 4   0.055754   5.822609  12.598884   5.524730   # H_
 121 1 4   0.049939   5.013430  14.069648   5.176549   # H_
 122 1 3  -0.002402   4.202595  13.227142   6.634478   # C_3
 123 1 3   0.063268   6.245311   9.088718   8.285128   # C_3
 124 1 3  -0.125754   5.111757   8.050386   7.903827   # C_3
 125 1 4   0.016379   7.214296   8.884198   7.801567   # H_
 126 1 4   0.015723   6.435340   9.176280   9.349336   # H_
 127 1 4   0.076418   4.153121   8.374968   8.233998   # H_
 128 1 3  -0.065685   5.116518   7.533911   6.544017   # C_3
 129 1 4   0.070150   5.175928   7.148676   8.279539   # H_
 130 1 4   0.046630   5.497612   8.162168   5.796112   # H_
 131 1 4   0.036807   5.736909   6.654351   6.505515   # H_
 132 1 3  -0.012642   3.675356   7.341190   6.143465   # C_3
 133 1 4   0.043403   3.403767   8.160098   5.525765   # H_
 134 1 3  -0.193690   3.647617   6.292922   5.217536   # C_3
 135 1 4   0.032279   2.891018   7.332496   6.904204   # H_
 136 1 4   0.020144   3.850067  14.210618   6.839205   # H_
 137 1 3  -0.216505   5.109273  13.070233   7.773207   # C_3
 138 1 4   0.032948   3.347876  12.615652   6.723697   # H_
 139 1 4   0.085683   6.107446  12.708804   7.682125   # H_
 140 1 4   0.078853   5.193316  14.067578   8.169620   # H_
 141 1 4   0.109074   4.619294  12.385670   8.423821   # H_
 142 1 4   0.068073   4.029747   6.654558   4.277945   # H_
 143 1 4   0.079891   2.622948   6.004151   5.187313   # H_
 144 1 4   0.059170   4.197420   5.380448   5.516450   # H_
 145 1 3   0.524521  13.529781   0.000000   7.170619   # C_3
 146 1 2  -0.709213  13.878790   0.000000   8.377659   # O_3
 147 1 2  -0.692990  12.322741   0.000000   6.821610   # O_3
 148 1 3  -0.155366  14.593782   0.000000   6.106618   # C_3
 149 1 3  -0.075709  14.166733   0.000000   4.812636   # C_3
 150 1 4   0.022389  13.050774   0.000000   4.580585   # H_
 151 1 2  -0.285538  14.755866   0.119855   2.476803   # O_3
 152 1 3   0.155052  15.162629   0.000000   3.817568   # C_3
 153 1 3  -0.242166  16.456611   0.000000   4.243582   # C_3
 154 1 3  -0.004698  16.882832   0.000000   5.537564   # C_3
 155 1 3   0.018965  15.887764   0.000000   6.533667   # C_3
 156 1 2  -0.089804  16.176328  20.449304   7.855388   # O_3
 157 1 4   0.002846  17.998791   0.000000   5.769615   # H_
 158 1 2  -0.666633  18.727652   0.000000   3.528590   # O_3
 159 1 3   0.538346  17.520612   0.000000   3.179581   # C_3
 160 1 2  -0.704548  17.171603   0.000000   1.972541   # O_3
 161 1 3   0.050385  14.702459   1.478837   2.307267   # C_3
 162 1 3  -0.138636  14.961214   2.478873   3.610150   # C_3
 163 1 4   0.022985  15.445189   1.638437   1.527690   # H_
 164 1 4  -0.007394  13.716085   1.616701   1.813355   # H_
 165 1 4   0.085330  14.155762   1.982270   3.822743   # H_
 166 1 3  -0.091350  15.189954   2.751083   5.101407   # C_3
 167 1 4   0.074524  15.947588   2.152428   3.459244   # H_
 168 1 4   0.065830  15.885073   2.120342   5.378999   # H_
 169 1 4   0.045137  15.558421   3.721725   5.187313   # H_
 170 1 3  -0.017135  14.471857   2.744459   6.475292   # C_3
 171 1 3   0.034026  16.243397  19.095084   7.835515   # C_3
 172 1 3  -0.082016  15.037185  18.188406   7.307862   # C_3
 173 1 4   0.032756  17.157527  18.808797   7.420472   # H_
 174 1 4   0.047765  16.301151  19.099017   8.880265   # H_
 175 1 4   0.081396  14.093039  18.526858   7.715867   # H_
 176 1 3  -0.076047  14.782777  17.443399   5.866493   # C_3
 177 1 4   0.051743  15.289729  17.440915   7.961581   # H_
 178 1 4   0.040977  15.096595  16.450815   5.851382   # H_
 179 1 4   0.055988  13.710082  17.395788   5.848277   # H_
 180 1 3  -0.072636  15.024143  18.042883   4.509996   # C_3
 181 1 4   0.102722  15.541239  18.746282   4.996042   # H_
 182 1 3  -0.194523  15.813657  17.911642   3.140458   # C_3
 183 1 4   0.077540  14.056400  18.379264   4.206735   # H_
 184 1 4   0.024701  14.168389   3.716550   6.690990   # H_
 185 1 3  -0.214481  15.390954   2.577821   7.676536   # C_3
 186 1 4   0.037392  13.574908   2.191137   6.532839   # H_
 187 1 4   0.070363  16.277346   1.939213   7.780038   # H_
 188 1 4   0.075539  15.788402   3.510995   7.852697   # H_
 189 1 4   0.098932  14.756073   2.309337   8.452387   # H_
 190 1 4   0.114388  16.641052  18.546109   3.152050   # H_
 191 1 4   0.103784  15.211689  18.306399   2.337282   # H_
 192 1 4   0.073461  16.211518  16.972465   2.832850   # H_
 193 1 3   0.535456  13.529781  10.350200  17.520819   # C_3
 194 1 2  -0.690413  13.878790  10.350200  18.727859   # O_3
 195 1 2  -0.734592  12.322741  10.350200  17.171810   # O_3
 196 1 3  -0.175047  14.593782  10.350200  16.456818   # C_3
 197 1 3  -0.026836  14.166733  10.350200  15.162836   # C_3
 198 1 4   0.048605  13.050774  10.350200  14.930785   # H_
 199 1 2  -0.231025  14.772840  10.504211  12.809408   # O_3
 200 1 3   0.153446  15.162629  10.350200  14.167768   # C_3
 201 1 3  -0.190225  16.456611  10.350200  14.593782   # C_3
 202 1 3  -0.031020  16.882832  10.350200  15.887764   # C_3
 203 1 3   0.155792  15.887764  10.350200  16.883867   # C_3
 204 1 2  -0.197007  16.196200   9.915699  18.154251   # O_3
 205 1 4   0.043180  17.998791  10.350200  16.119815   # H_
 206 1 2  -0.632919  18.727652  10.350200  13.878790   # O_3
 207 1 3   0.537562  17.520612  10.350200  13.529781   # C_3
 208 1 2  -0.654570  17.171603  10.350200  12.322741   # O_3
 209 1 3   0.041510  14.631250  11.841250  12.712737   # C_3
 210 1 3  -0.106761  14.973427  12.794503  13.957866   # C_3
 211 1 4   0.036742  15.354729  11.989051  11.807508   # H_
 212 1 4   0.014646  13.604303  12.061295  12.324604   # H_
 213 1 4   0.076859  14.153070  12.398298  14.255330   # H_
 214 1 3  -0.141783  15.284554  13.112875  15.487625   # C_3
 215 1 4   0.057525  16.054816  12.390845  13.755623   # H_
 216 1 4   0.073379  16.052125  12.551895  15.747829   # H_
 217 1 4   0.065272  15.644120  14.005270  15.426766   # H_
 218 1 3   0.017029  14.578257  13.058847  16.819903   # C_3
 219 1 3   0.014031  16.088144   8.516352  18.025701   # C_3
 220 1 3  -0.089824  14.886486   7.702412  17.348384   # C_3
 221 1 4   0.031804  17.056923   8.151404  17.802551   # H_
 222 1 4   0.085221  15.887557   8.361306  19.029257   # H_
 223 1 4   0.065143  13.904666   8.004845  17.739415   # H_
 224 1 3  -0.096626  14.678033   7.013089  15.927302   # C_3
 225 1 4   0.057189  15.133234   6.865702  17.893633   # H_
 226 1 4   0.041298  14.967217   6.057765  15.794612   # H_
 227 1 4   0.047727  13.562074   6.980589  15.895837   # H_
 228 1 3  -0.030624  15.131578   7.700756  14.674100   # C_3
 229 1 4   0.054001  15.708913   8.275399  15.257023   # H_
 230 1 3  -0.221089  15.973257   7.620024  13.413652   # C_3
 231 1 4   0.046204  14.222210   8.162168  14.433561   # H_
 232 1 4   0.010032  14.134440  14.034250  16.931685   # H_
 233 1 3  -0.227124  15.335891  12.925537  18.091322   # C_3
 234 1 4   0.008659  13.685241  12.535334  16.671067   # H_
 235 1 4   0.104474  16.090214  12.179908  18.281765   # H_
 236 1 4   0.089362  15.834150  13.870717  18.362497   # H_
 237 1 4   0.102206  14.541824  12.683963  18.724754   # H_
 238 1 4   0.087340  16.995028   7.730357  13.505769   # H_
 239 1 4   0.097506  15.766046   8.440795  12.732609   # H_
 240 1 4   0.086599  15.844500   6.773999  12.830936   # H_
 241 1 3   0.515726  17.520819   0.000000  17.520819   # C_3
 242 1 2  -0.733476  17.171810   0.000000  18.727859   # O_3
 243 1 2  -0.744981  18.727859   0.000000  17.171810   # O_3
 244 1 3  -0.170239  16.456818   0.000000  16.456818   # C_3
 245 1 3  -0.072812  16.883867   0.000000  15.162836   # C_3
 246 1 4   0.032236  17.999826   0.000000  14.930785   # H_
 247 1 2  -0.323349  16.211104   0.133518  12.806509   # O_3
 248 1 3   0.176998  15.887971   0.000000  14.167768   # C_3
 249 1 3  -0.241764  14.593989   0.000000  14.593782   # C_3
 250 1 3  -0.020004  14.167768   0.000000  15.887764   # C_3
 251 1 3   0.069972  15.162836   0.000000  16.883867   # C_3
 252 1 2  -0.181476  14.839703   0.653305  18.174123   # O_3
 253 1 4   0.009313  13.051809   0.000000  16.119815   # H_
 254 1 2  -0.812728  12.322948   0.000000  13.878790   # O_3
 255 1 3   0.549138  13.529988   0.000000  13.529781   # C_3
 256 1 2  -0.786758  13.878997   0.000000  12.322741   # O_3
 257 1 3   0.212670  16.372567  19.674488  12.133953   # C_3
 258 1 3  -0.131256  16.252919  18.332274  12.905250   # C_3
 259 1 4   0.013161  15.643913  19.769089  11.384392   # H_
 260 1 4   0.010706  17.339897  19.659170  11.638800   # H_
 261 1 4   0.060456  16.901670  17.688906  12.385463   # H_
 262 1 3  -0.091124  16.489318  17.973329  14.514499   # C_3
 263 1 4   0.074349  15.218520  18.066688  12.767179   # H_
 264 1 4   0.085803  15.973464  18.589787  15.140687   # H_
 265 1 4   0.035205  16.105325  17.029598  14.758350   # H_
 266 1 3   0.028817  17.889493  18.117197  15.138203   # C_3
 267 1 3  -0.091183  13.652949   0.342799  18.876281   # C_3
 268 1 3  -0.070349  12.838181   1.589584  19.062170   # C_3
 269 1 4   0.125192  12.944788  20.295707  18.408038   # H_
 270 1 4   0.043823  14.002372   0.027946  19.910266   # H_
 271 1 4   0.094353  13.361280   2.403730  19.541799   # H_
 272 1 3  -0.054641  12.279063   2.055964  17.774191   # C_3
 273 1 4   0.046880  12.032729   1.296466  19.772401   # H_
 274 1 4   0.033179  11.740853   1.161085  17.435119   # H_
 275 1 4   0.051336  11.547304   2.799108  18.145350   # H_
 276 1 3  -0.036976  13.091140   2.504127  16.517677   # C_3
 277 1 4   0.054576  12.723708   1.834055  15.734374   # H_
 278 1 3  -0.156730  13.099627   3.655691  15.538548   # C_3
 279 1 4   0.049997  14.151621   2.305404  16.672309   # H_
 280 1 4   0.027650  18.178263  17.142208  15.344171   # H_
 281 1 3  -0.228677  18.840262  18.780645  14.135682   # C_3
 282 1 4   0.063221  17.860305  18.433085  16.239464   # H_
 283 1 4   0.174274  19.569951  19.315750  14.699975   # H_
 284 1 4   0.131302  18.517750  19.467484  13.401853   # H_
 285 1 4   0.120722  19.255305  17.981195  13.529574   # H_
 286 1 4   0.041786  12.808165   3.328003  14.500216   # H_
 287 1 4   0.047747  14.127402   3.989381  15.497147   # H_
 288 1 4   0.067080  12.503870   4.512066  15.688005   # H_
 289 1 3   0.531308  17.520819  10.350200   7.170619   # C_3
 290 1 2  -0.726879  17.171810  10.350200   8.377659   # O_3
 291 1 2  -0.700952  18.727859  10.350200   6.821610   # O_3
 292 1 3  -0.169105  16.456818  10.350200   6.106618   # C_3
 293 1 3  -0.034435  16.883867  10.350200   4.812636   # C_3
 294 1 4   0.055181  17.999826  10.350200   4.580585   # H_
 295 1 2  -0.220759  16.202617  10.615579   2.422775   # O_3
 296 1 3   0.160176  15.887971  10.350200   3.817568   # C_3
 297 1 3  -0.195214  14.593989  10.350200   4.243582   # C_3
 298 1 3  -0.016447  14.167768  10.350200   5.537564   # C_3
 299 1 3   0.122405  15.162836  10.350200   6.533667   # C_3
 300 1 2  -0.208925  14.887728  11.137643   7.798462   # O_3
 301 1 4   0.038254  13.051809  10.350200   5.769615   # H_
 302 1 2  -0.671066  12.322948  10.350200   3.528590   # O_3
 303 1 3   0.554667  13.529988  10.350200   3.179581   # C_3
 304 1 2  -0.656075  13.878997  10.350200   1.972541   # O_3
 305 1 3   0.063922  16.599030   9.445179   1.769263   # C_3
 306 1 3  -0.100218  16.365736   8.081022   2.513857   # C_3
 307 1 4  -0.002578  16.008861   9.435035   0.844162   # H_
 308 1 4   0.000791  17.628875   9.564206   1.378026   # H_
 309 1 4   0.046233  17.132272   7.442001   2.049547   # H_
 310 1 3  -0.078230  16.556594   7.687508   4.046721   # C_3
 311 1 4   0.058730  15.336719   7.810054   2.252411   # H_
 312 1 4   0.044315  15.743068   8.133394   4.613291   # H_
 313 1 4   0.031679  16.395959   6.694509   4.289744   # H_
 314 1 3  -0.011143  17.879763   7.880642   4.783862   # C_3
 315 1 3   0.054431  13.724986  10.871022   8.590252   # C_3
 316 1 3  -0.109953  12.787672  12.025069   8.825409   # C_3
 317 1 4   0.008728  13.046634  10.156444   8.135050   # H_
 318 1 4   0.012301  14.041081  10.476679   9.559859   # H_
 319 1 4   0.065979  13.166489  12.757036   9.473331   # H_
 320 1 3  -0.054151  12.261261  12.646288   7.556681   # C_3
 321 1 4   0.040125  11.857189  11.599469   9.338778   # H_
 322 1 4   0.050913  11.630727  11.785773   7.319661   # H_
 323 1 4   0.045636  11.620998  13.442633   7.827442   # H_
 324 1 3  -0.037016  13.176840  12.841079   6.270979   # C_3
 325 1 4   0.061720  12.649186  12.161278   5.611878   # H_
 326 1 3  -0.171921  13.332507  13.865542   5.216087   # C_3
 327 1 4   0.053454  14.211239  12.631798   6.422092   # H_
 328 1 4   0.039041  18.264791   6.927182   5.072012   # H_
 329 1 3  -0.210407  18.852268   8.427340   3.797488   # C_3
 330 1 4   0.045529  17.791994   8.330255   5.766303   # H_
 331 1 4   0.137900  19.584027   8.898895   4.468595   # H_
 332 1 4   0.087122  18.549421   9.164274   3.093882   # H_
 333 1 4   0.114110  19.149319   7.578002   3.264039   # H_
 334 1 4   0.059225  13.515498  13.324640   4.241098   # H_
 335 1 4   0.057600  14.221589  14.442255   5.447931   # H_
 336 1 4   0.078079  12.563073  14.545757   5.049242   # H_
 337 1 3   0.530653   7.170619   0.000000   7.170619   # C_3
 338 1 2  -0.697561   6.821610   0.000000   8.377659   # O_3
 339 1 2  -0.701768   8.377659   0.000000   6.821610   # O_3
 340 1 3  -0.180017   6.106618   0.000000   6.106618   # C_3
 341 1 3  -0.072351   6.533667   0.000000   4.812636   # C_3
 342 1 4   0.017284   7.649626   0.000000   4.580585   # H_
 343 1 2  -0.321016   5.809153   0.125858   2.447615   # O_3
 344 1 3   0.174830   5.537564   0.000000   3.817568   # C_3
 345 1 3  -0.239651   4.243582   0.000000   4.243582   # C_3
 346 1 3  -0.016498   3.817568   0.000000   5.537564   # C_3
 347 1 3   0.066053   4.812636   0.000000   6.533667   # C_3
 348 1 2  -0.160019   4.550155   0.614802   7.858907   # O_3
 349 1 4  -0.002218   2.701609   0.000000   5.769615   # H_
 350 1 2  -0.721375   1.972748   0.000000   3.528590   # O_3
 351 1 3   0.554369   3.179581   0.000000   3.179581   # C_3
 352 1 2  -0.704947   3.528590   0.000000   1.972541   # O_3
 353 1 3   0.197000   6.281122  19.702848   1.841094   # C_3
 354 1 3  -0.117826   5.972479  18.405140   2.621913   # C_3
 355 1 4   0.002941   5.721177  19.746940   0.879974   # H_
 356 1 4  -0.004365   7.339534  19.821047   1.583374   # H_
 357 1 4   0.045090   6.634685  17.765497   2.094052   # H_
 358 1 3  -0.068096   6.149882  17.979953   4.179618   # C_3
 359 1 4   0.075532   4.916552  18.194203   2.351772   # H_
 360 1 4   0.065759   5.381276  18.432671   4.761506   # H_
 361 1 4   0.033220   5.966683  16.982608   4.262005   # H_
 362 1 3   0.012568   7.412399  18.018042   4.946568   # C_3
 363 1 3  -0.266041   3.363194   0.170157   8.510348   # C_3
 364 1 3  -0.013254   2.518411   1.313647   9.089339   # C_3
 365 1 4   0.161334   2.691259  20.287220   7.852904   # H_
 366 1 4   0.160108   3.679910  20.296328   9.411644   # H_
 367 1 4   0.034676   3.035507   2.184513   9.405020   # H_
 368 1 3  -0.094474   1.538040   1.999038   8.132359   # C_3
 369 1 4  -0.024410   1.925551   0.851821   9.930189   # H_
 370 1 4  -0.015482   0.646266   1.305781   8.080815   # H_
 371 1 4   0.029238   1.198139   2.915030   8.575555   # H_
 372 1 3  -0.047052   2.182029   2.162778   6.737980   # C_3
 373 1 4   0.026449   1.646303   1.377198   6.350676   # H_
 374 1 3  -0.176431   2.608043   2.933661   5.466562   # C_3
 375 1 4   0.062581   3.146461   1.929898   6.932771   # H_
 376 1 4   0.012059   7.734497  17.002067   5.227886   # H_
 377 1 3  -0.218178   8.353232  18.528928   4.026021   # C_3
 378 1 4   0.054508   7.363132  18.583991   5.867942   # H_
 379 1 4   0.118461   9.068017  18.945006   4.707685   # H_
 380 1 4   0.106156   8.162582  19.271451   3.298816   # H_
 381 1 4   0.074795   8.675745  17.718300   3.435852   # H_
 382 1 4   0.078163   2.577821   2.235022   4.658625   # H_
 383 1 4   0.058799   3.653414   3.188276   5.592627   # H_
 384 1 4   0.067346   2.198175   3.861867   5.082362   # H_
 385 1 3   0.535117   7.170619  10.350200  17.520819   # C_3
 386 1 2  -0.613121   6.821610  10.350200  18.727859   # O_3
 387 1 2  -0.661070   8.377659  10.350200  17.171810   # O_3
 388 1 3  -0.155537   6.106618  10.350200  16.456818   # C_3
 389 1 3  -0.050842   6.533667  10.350200  15.162836   # C_3
 390 1 4   0.046556   7.649626  10.350200  14.930785   # H_
 391 1 2  -0.252929   5.823851  10.219994  12.847082   # O_3
 392 1 3   0.192708   5.537564  10.350200  14.167768   # C_3
 393 1 3  -0.217034   4.243582  10.350200  14.593782   # C_3
 394 1 3  -0.002827   3.817568  10.350200  15.887764   # C_3
 395 1 3   0.108262   4.812636  10.350200  16.883867   # C_3
 396 1 2  -0.184982   4.448723  10.967072  18.243677   # O_3
 397 1 4   0.033263   2.701609  10.350200  16.119815   # H_
 398 1 2  -0.762788   1.972748  10.350200  13.878790   # O_3
 399 1 3   0.552467   3.179581  10.350200  13.529781   # C_3
 400 1 2  -0.737221   3.528590  10.350200  12.322741   # O_3
 401 1 3   0.098839   6.166649   9.052078  12.370559   # C_3
 402 1 3  -0.113089   5.689505   7.890785  13.151999   # C_3
 403 1 4   0.015987   5.572962   9.141711  11.483754   # H_
 404 1 4  -0.002661   7.257560   8.983560  12.101868   # H_
 405 1 4   0.049526   6.410914   7.248659  12.749997   # H_
 406 1 3  -0.092624   5.786383   7.695374  14.685899   # C_3
 407 1 4   0.058179   4.704580   7.691441  12.721431   # H_
 408 1 4   0.057588   5.170960   8.321147  15.188297   # H_
 409 1 4   0.037923   5.378585   6.795113  14.959558   # H_
 410 1 3   0.015736   7.030684   7.481332  15.462578   # C_3
 411 1 3   0.025997   3.214151  10.683062  19.030292   # C_3
 412 1 3  -0.087892   2.235436  11.780391  19.593343   # C_3
 413 1 4   0.014655   2.475147  10.082958  18.493530   # H_
 414 1 4   0.053880   3.529418  10.202813  19.983131   # H_
 415 1 4   0.096939   2.637231  12.288999  20.485116   # H_
 416 1 3  -0.069656   1.591861  12.734265  18.579644   # C_3
 417 1 4   0.040074   1.335797  11.186082  19.913785   # H_
 418 1 4   0.012740   0.526618  12.445701  18.541762   # H_
 419 1 4   0.065650   1.622497  13.656468  19.094670   # H_
 420 1 3  -0.034600   2.309958  12.652498  17.203274   # C_3
 421 1 4   0.047971   1.836746  11.705869  17.062512   # H_
 422 1 3  -0.148993   2.593139  13.044978  15.758387   # C_3
 423 1 4   0.058407   3.317032  12.580047  17.477348   # H_
 424 1 4   0.010762   7.272465   6.479846  15.662958   # H_
 425 1 3  -0.229670   8.119939   8.032790  14.731854   # C_3
 426 1 4   0.025498   6.969411   7.975657  16.435083   # H_
 427 1 4   0.102661   8.821682   8.429203  15.445189   # H_
 428 1 4   0.084754   8.000084   8.755234  13.993884   # H_
 429 1 4   0.079362   8.490476   7.268945  14.128851   # H_
 430 1 4   0.068369   2.053066  12.414444  15.050226   # H_
 431 1 4   0.052335   3.682394  12.864471  15.565873   # H_
 432 1 4   0.063576   2.406836  14.110014  15.546828   # H_
 433 1 3   0.512966  17.520819   3.179581   0.000000   # C_3
 434 1 2  -0.728638  18.727859   3.528590   0.000000   # O_3
 435 1 2  -0.778465  17.171810   1.972541   0.000000   # O_3
 436 1 3  -0.150444  16.456818   4.243582   0.000000   # C_3
 437 1 3  -0.078286  15.162836   3.816533   0.000000   # C_3
 438 1 4   0.023880  14.930785   2.700574   0.000000   # H_
 439 1 2  -0.277125  12.854120   4.399870   0.085286   # O_3
 440 1 3   0.172222  14.167768   4.812636   0.000000   # C_3
 441 1 3  -0.248516  14.593782   6.106618   0.000000   # C_3
 442 1 3   0.003088  15.887764   6.532632   0.000000   # C_3
 443 1 3   0.027968  16.883867   5.537564   0.000000   # C_3
 444 1 2  -0.079466  18.104570   5.779966  20.022462   # O_3
 445 1 4   0.005701  16.119815   7.648591   0.000000   # H_
 446 1 2  -0.709884  13.878790   8.377452   0.000000   # O_3
 447 1 3   0.551325  13.529781   7.170619   0.000000   # C_3
 448 1 2  -0.699260  12.322741   6.821610   0.000000   # O_3
 449 1 3   0.051753  12.645460   4.348740   1.459378   # C_3
 450 1 3  -0.127329  13.917707   4.575409   2.421119   # C_3
 451 1 4   0.029678  11.884721   5.118588   1.654583   # H_
 452 1 4   0.002442  12.189845   3.332350   1.699503   # H_
 453 1 4   0.076971  14.260713   3.707028   1.975025   # H_
 454 1 3  -0.082543  15.446845   4.993971   2.668903   # C_3
 455 1 4   0.073756  13.845256   5.578137   2.114132   # H_
 456 1 4   0.056155  15.746587   5.866907   2.195277   # H_
 457 1 4   0.044019  15.384330   5.194765   3.683429   # H_
 458 1 3  -0.026208  16.774362   4.248343   2.756879   # C_3
 459 1 3   0.034998  17.794271   5.687228  18.661204   # C_3
 460 1 3  -0.079581  17.527650   4.287881  18.013281   # C_3
 461 1 4   0.032243  17.015936   6.335357  18.420458   # H_
 462 1 4   0.059876  18.695980   6.087367  18.196480   # H_
 463 1 4   0.055111  17.403447   3.367955  18.540106   # H_
 464 1 3  -0.096722  16.236773   4.140287  17.176778   # C_3
 465 1 4   0.062056  18.380920   4.100128  17.450851   # H_
 466 1 4   0.044596  16.099529   4.655934  16.321644   # H_
 467 1 4   0.043848  16.299702   3.046478  16.900428   # H_
 468 1 3  -0.019762  14.983571   4.274219  17.993823   # C_3
 469 1 4   0.080466  15.382467   4.994386  18.639468   # H_
 470 1 3  -0.279154  13.611341   4.995628  17.925718   # C_3
 471 1 4   0.067659  14.921469   3.303370  18.436190   # H_
 472 1 4   0.028880  16.969360   3.929971   3.680738   # H_
 473 1 3  -0.202019  18.044125   5.102442   2.497089   # C_3
 474 1 4   0.043620  16.891112   3.335662   2.171058   # H_
 475 1 4   0.096749  18.475935   5.609601   1.620841   # H_
 476 1 4   0.079130  18.086975   5.783485   3.321793   # H_
 477 1 4   0.122148  18.728480   4.318724   2.713201   # H_
 478 1 4   0.126583  12.799471   4.380826  18.115334   # H_
 479 1 4   0.110476  13.545721   5.339875  17.047193   # H_
 480 1 4   0.130187  13.448843   5.874774  18.529342   # H_
 481 1 3   0.537300  17.520819  13.529781  10.350200   # C_3
 482 1 2  -0.696447  18.727859  13.878790  10.350200   # O_3
 483 1 2  -0.737128  17.171810  12.322741  10.350200   # O_3
 484 1 3  -0.175777  16.456818  14.593782  10.350200   # C_3
 485 1 3  -0.029498  15.162836  14.166733  10.350200   # C_3
 486 1 4   0.046335  14.930785  13.050774  10.350200   # H_
 487 1 2  -0.225515  12.830729  14.743860  10.574385   # O_3
 488 1 3   0.153583  14.167768  15.162629  10.350200   # C_3
 489 1 3  -0.192317  14.593782  16.456611  10.350200   # C_3