 (written by mofun)

840 atoms
0 bonds
0 angles
0 dihedrals
0 impropers

5 atom types
   0.000000  20.700400 xlo xhi
   0.000000  20.700400 ylo yhi
   0.000000  20.700400 zlo zhi

Masses

 1 91.2240   # Zr3+4
 2 15.9994   # O_3
 3 12.0107   # C_3
 4 14.0067   # N_3
 5 1.0079   # H_

Pair Coeffs

 1   0.069000   2.783168 # Zr3+4
 2   0.060000   3.118146 # O_3
 3   0.105000   3.430851 # C_3
 4   0.069000   3.260689 # N_3
 5   0.044000   2.571134 # H_

Atoms

 1 1 1   3.170920   2.481771   0.000000   0.000000   # Zr3+4
 2 1 1   3.190250   2.481771  10.350200  10.350200   # Zr3+4
 3 1 1   3.178400  12.831971   0.000000  10.350200   # Zr3+4
 4 1 1   3.181680  12.831971  10.350200   0.000000   # Zr3+4
 5 1 1   3.169360  18.218629   0.000000   0.000000   # Zr3+4
 6 1 1   3.190980  18.218629  10.350200  10.350200   # Zr3+4
 7 1 1   3.180720   7.868429   0.000000  10.350200   # Zr3+4
 8 1 1   3.179450   7.868429  10.350200   0.000000   # Zr3+4
 9 1 1   3.171000   0.000000   2.481771   0.000000   # Zr3+4
 10 1 1   3.146090   0.000000  12.831971  10.350200   # Zr3+4
 11 1 1   3.190240  10.350200   2.481771  10.350200   # Zr3+4
 12 1 1   3.181800  10.350200  12.831971   0.000000   # Zr3+4
 13 1 1   3.169480   0.000000  18.218629   0.000000   # Zr3+4
 14 1 1   3.212520   0.000000   7.868429  10.350200   # Zr3+4
 15 1 1   3.190980  10.350200  18.218629  10.350200   # Zr3+4
 16 1 1   3.179980  10.350200   7.868429   0.000000   # Zr3+4
 17 1 1   3.201670   0.000000   0.000000   2.481771   # Zr3+4
 18 1 1   3.178500   0.000000  10.350200  12.831971   # Zr3+4
 19 1 1   3.145990  10.350200   0.000000  12.831971   # Zr3+4
 20 1 1   3.190810  10.350200  10.350200   2.481771   # Zr3+4
 21 1 1   3.137470   0.000000   0.000000  18.218629   # Zr3+4
 22 1 1   3.180830   0.000000  10.350200   7.868429   # Zr3+4
 23 1 1   3.212420  10.350200   0.000000   7.868429   # Zr3+4
 24 1 1   3.191570  10.350200  10.350200  18.218629   # Zr3+4
 25 1 2  -1.309780   1.161292   9.188908   9.188908   # O_3
 26 1 2  -1.227400  11.511492  19.539108   9.188908   # O_3
 27 1 2  -1.337250  11.511492   9.188908  19.539108   # O_3
 28 1 2  -1.309990   9.188908   1.161292   9.188908   # O_3
 29 1 2  -1.336900   9.188908  11.511492  19.539108   # O_3
 30 1 2  -1.191480  19.539108  19.539108   1.161292   # O_3
 31 1 2  -1.228100  19.539108   9.188908  11.511492   # O_3
 32 1 2  -1.354860   1.161292   1.161292   1.161292   # O_3
 33 1 2  -1.413440  11.511492  11.511492   1.161292   # O_3
 34 1 2  -1.358120  19.539108   1.161292   1.161292   # O_3
 35 1 2  -1.451680  19.539108  11.511492  11.511492   # O_3
 36 1 2  -1.533450   9.188908   1.161292  11.511492   # O_3
 37 1 2  -1.420630   9.188908  11.511492   1.161292   # O_3
 38 1 2  -1.357260   1.161292  19.539108   1.161292   # O_3
 39 1 2  -1.404350   1.161292   9.188908  11.511492   # O_3
 40 1 2  -1.451080  11.511492  19.539108  11.511492   # O_3
 41 1 2  -1.420420  11.511492   9.188908   1.161292   # O_3
 42 1 2  -1.330410  19.539108  19.539108  19.539108   # O_3
 43 1 2  -1.315450  19.539108   9.188908   9.188908   # O_3
 44 1 2  -1.314870   9.188908  19.539108   9.188908   # O_3
 45 1 2  -1.344840   9.188908   9.188908  19.539108   # O_3
 46 1 2  -1.488230   1.161292   1.161292  19.539108   # O_3
 47 1 2  -1.533230   1.161292  11.511492   9.188908   # O_3
 48 1 2  -1.404620  11.511492   1.161292   9.188908   # O_3
 49 1 3   0.534861   3.179581   0.000000  17.520819   # C_3
 50 1 2  -0.735041   3.528590   0.000000  18.727859   # O_3
 51 1 2  -0.784074   1.972541   0.000000  17.171810   # O_3
 52 1 3  -0.157960   4.243582   0.000000  16.456818   # C_3
 53 1 3   0.017310   3.816533   0.000000  15.162836   # C_3
 54 1 4  -0.011105   2.290292  20.295500  14.769942   # N_3
 55 1 5   0.015581   4.580585   0.000000  13.051809   # H_
 56 1 3  -0.011034   4.812636   0.000000  14.167768   # C_3
 57 1 3  -0.164558   6.106618   0.000000  14.593782   # C_3
 58 1 3   0.005773   6.532632   0.000000  15.887764   # C_3
 59 1 3   0.001396   5.537564   0.000000  16.883867   # C_3
 60 1 5   0.021290   5.769615   0.000000  17.999826   # H_
 61 1 5   0.000938   7.648591   0.000000  16.119815   # H_
 62 1 2  -0.792200   8.377452   0.000000  13.878790   # O_3
 63 1 3   0.533939   7.170619   0.000000  13.529781   # C_3
 64 1 2  -0.792428   6.821610   0.000000  12.322741   # O_3
 65 1 5   0.083009   2.240611  19.300225  14.436873   # H_
 66 1 3  -0.397169   0.829465   0.166845  14.924574   # C_3
 67 1 5   0.116478   1.068348   1.026119  15.512880   # H_
 68 1 5   0.114059   0.280490  20.113337  15.478310   # H_
 69 1 3   0.325346  20.226361   0.881630  13.952070   # C_3
 70 1 3  -0.278939  19.119303   0.842713  12.736956   # C_3
 71 1 3  -0.468056   0.513991   1.540524  13.160900   # C_3
 72 1 3  -0.298967  19.053476   1.537212  14.931406   # C_3
 73 1 5   0.090031  18.744626   1.832606  12.470956   # H_
 74 1 5   0.057637  18.282593   0.236399  13.005854   # H_
 75 1 5   0.074619  19.465621   0.515647  11.829451   # H_
 76 1 5   0.092809   0.645438   0.813940  12.456052   # H_
 77 1 5   0.139514   1.472833   1.901125  13.526262   # H_
 78 1 5   0.110493   0.036019   2.388826  12.778771   # H_
 79 1 5   0.137961  19.016008   2.172507  15.838497   # H_
 80 1 5   0.098984  18.082420   1.919962  14.488831   # H_
 81 1 5   0.119906  19.061342   0.642954  15.278758   # H_
 82 1 3   0.559474   3.179581  10.350200   7.170619   # C_3
 83 1 2  -0.666420   3.528590  10.350200   8.377659   # O_3
 84 1 2  -0.656025   1.972541  10.350200   6.821610   # O_3
 85 1 3  -0.176025   4.243582  10.350200   6.106618   # C_3
 86 1 3   0.100653   3.816533  10.350200   4.812636   # C_3
 87 1 4  -0.123295   2.302298   9.941781   4.411255   # N_3
 88 1 5   0.055027   4.580585  10.350200   2.701609   # H_
 89 1 3  -0.026805   4.812636  10.350200   3.817568   # C_3
 90 1 3  -0.129337   6.106618  10.350200   4.243582   # C_3
 91 1 3  -0.000519   6.532632  10.350200   5.537564   # C_3
 92 1 3   0.032052   5.537564  10.350200   6.533667   # C_3
 93 1 5   0.025930   5.769615  10.350200   7.649626   # H_
 94 1 5   0.033231   7.648591  10.350200   5.769615   # H_
 95 1 2  -0.743629   8.377452  10.350200   3.528590   # O_3
 96 1 3   0.530029   7.170619  10.350200   3.179581   # C_3
 97 1 2  -0.755681   6.821610  10.350200   1.972541   # O_3
 98 1 5   0.072895   2.267315   8.956235   4.049619   # H_
 99 1 3  -0.180749   0.829051  10.489514   4.548499   # C_3
 100 1 5   0.065572   1.022807  11.349201   5.159782   # H_
 101 1 5  -0.000485   0.293532   9.716975   5.084639   # H_
 102 1 3   0.350535  20.241265  11.231002   3.588414   # C_3
 103 1 3  -0.294819  19.150354  11.199537   2.377234   # C_3
 104 1 3  -0.488148   0.543800  11.899418   2.825812   # C_3
 105 1 3  -0.314249  19.066103  11.868988   4.564852   # C_3
 106 1 5   0.096231  18.783543  12.189017   2.112062   # H_
 107 1 5   0.098566  18.298533  10.599847   2.625225   # H_
 108 1 5   0.114264  19.499570  10.870608   1.474903   # H_
 109 1 5   0.116129   0.688495  11.171178   2.113718   # H_
 110 1 5   0.143675   1.510301  12.241803   3.195728   # H_
 111 1 5   0.113985   0.073486  12.746271   2.424845   # H_
 112 1 5   0.137852  19.040849  12.502007   5.476705   # H_
 113 1 5   0.102891  18.090908  12.244287   4.139666   # H_
 114 1 5   0.145228  19.082664  10.975352   4.925039   # H_
 115 1 3   0.542690  13.529781   0.000000   7.170619   # C_3
 116 1 2  -0.701972  13.878790   0.000000   8.377659   # O_3
 117 1 2  -0.691092  12.322741   0.000000   6.821610   # O_3
 118 1 3  -0.162989  14.593782   0.000000   6.106618   # C_3
 119 1 3   0.021667  14.166733   0.000000   4.812636   # C_3
 120 1 4  -0.018703  12.656225  20.295086   4.402561   # N_3
 121 1 5   0.015576  14.930785   0.000000   2.701609   # H_
 122 1 3  -0.015708  15.162629   0.000000   3.817568   # C_3
 123 1 3  -0.148397  16.456611   0.000000   4.243582   # C_3
 124 1 3   0.003491  16.882832   0.000000   5.537564   # C_3
 125 1 3   0.005343  15.887764   0.000000   6.533667   # C_3
 126 1 5   0.013809  16.119815   0.000000   7.649626   # H_
 127 1 5   0.015507  17.998791   0.000000   5.769615   # H_
 128 1 2  -0.643289  18.727652   0.000000   3.528590   # O_3
 129 1 3   0.531506  17.520612   0.000000   3.179581   # C_3
 130 1 2  -0.717560  17.171603   0.000000   1.972541   # O_3
 131 1 5   0.086301  12.622483  19.299604   4.056657   # H_
 132 1 3  -0.325013  11.177181   0.133311   4.534009   # C_3
 133 1 5   0.103329  11.352927   0.989065   5.150674   # H_
 134 1 5   0.141050  10.653047  20.055169   5.066423   # H_
 135 1 3   0.117283   9.888995   0.884942   3.582618   # C_3
 136 1 3  -0.223506   8.799326   0.852856   2.368540   # C_3
 137 1 3  -0.275052  10.893378   1.563087   2.823949   # C_3
 138 1 3  -0.263972   8.714040   1.521479   4.547671   # C_3
 139 1 5   0.056214   8.429824   1.848753   2.111441   # H_
 140 1 5   0.040676   7.946263   0.243644   2.608871   # H_
 141 1 5   0.013208   9.155580   0.533242   1.474696   # H_
 142 1 5   0.059862  11.036418   0.841471   2.112890   # H_
 143 1 5   0.093250  11.854912   1.892431   3.211874   # H_
 144 1 5   0.099095  10.434037   2.400418   2.409941   # H_
 145 1 5   0.101032   8.701620   2.152428   5.460559   # H_
 146 1 5   0.087467   7.734497   1.885185   4.140908   # H_
 147 1 5   0.096693   8.740330   0.630948   4.926488   # H_
 148 1 3   0.543317  13.529781  10.350200  17.520819   # C_3
 149 1 2  -0.701799  13.878790  10.350200  18.727859   # O_3
 150 1 2  -0.726148  12.322741  10.350200  17.171810   # O_3
 151 1 3  -0.171806  14.593782  10.350200  16.456818   # C_3
 152 1 3   0.101639  14.166733  10.350200  15.162836   # C_3
 153 1 4  -0.130747  12.650014   9.943851  14.762697   # N_3
 154 1 5   0.054949  14.930785  10.350200  13.051809   # H_
 155 1 3  -0.029050  15.162629  10.350200  14.167768   # C_3
 156 1 3  -0.114108  16.456611  10.350200  14.593782   # C_3
 157 1 3   0.002410  16.882832  10.350200  15.887764   # C_3
 158 1 3   0.037052  15.887764  10.350200  16.883867   # C_3
 159 1 5   0.035639  16.119815  10.350200  17.999826   # H_
 160 1 5   0.050025  17.998791  10.350200  16.119815   # H_
 161 1 2  -0.611463  18.727652  10.350200  13.878790   # O_3
 162 1 3   0.528340  17.520612  10.350200  13.529781   # C_3
 163 1 2  -0.661066  17.171603  10.350200  12.322741   # O_3
 164 1 5   0.074307  12.612340   8.957270  14.405201   # H_
 165 1 3  -0.101102  11.177388  10.493654  14.902218   # C_3
 166 1 5   0.050835  11.374870  11.349408  15.515571   # H_
 167 1 5   0.010365  10.643525   9.721115  15.439186   # H_
 168 1 3   0.136367   9.887753  11.232658  13.939649   # C_3
 169 1 3  -0.242963   8.794565  11.198916  12.728262   # C_3
 170 1 3  -0.295868  10.888410  11.897762  13.172286   # C_3
 171 1 3  -0.280795   8.712591  11.873335  14.915466   # C_3
 172 1 5   0.069932   8.425684  12.188810  12.461227   # H_
 173 1 5   0.088017   7.945435  10.597363  12.978530   # H_
 174 1 5   0.073527   9.141918  10.869780  11.824482   # H_
 175 1 5   0.088674  11.032692  11.169315  12.459778   # H_
 176 1 5   0.096089  11.855533  12.241182  13.540546   # H_
 177 1 5   0.106781  10.418304  12.746064  12.770077   # H_
 178 1 5   0.108886   8.687958  12.507389  15.825663   # H_
 179 1 5   0.089459   7.737189  12.247599  14.489245   # H_
 180 1 5   0.125449   8.729152  10.979699  15.274825   # H_
 181 1 3   0.523946  17.520819   0.000000  17.520819   # C_3
 182 1 2  -0.740371  17.171810   0.000000  18.727859   # O_3
 183 1 2  -0.760741  18.727859   0.000000  17.171810   # O_3
 184 1 3  -0.169519  16.456818   0.000000  16.456818   # C_3
 185 1 3   0.018088  16.883867   0.000000  15.162836   # C_3
 186 1 4  -0.090901  17.967947  19.577610  14.745102   # N_3
 187 1 5   0.003713  16.119815   0.000000  13.051809   # H_
 188 1 3  -0.005026  15.887971   0.000000  14.167768   # C_3
 189 1 3  -0.165671  14.593989   0.000000  14.593782   # C_3
 190 1 3   0.001808  14.167768   0.000000  15.887764   # C_3
 191 1 3   0.002454  15.162836   0.000000  16.883867   # C_3
 192 1 5   0.013822  14.930785   0.000000  17.999826   # H_
 193 1 5  -0.004910  13.051809   0.000000  16.119815   # H_
 194 1 2  -0.802407  12.322948   0.000000  13.878790   # O_3
 195 1 3   0.536818  13.529988   0.000000  13.529781   # C_3
 196 1 2  -0.788151  13.878997   0.000000  12.322741   # O_3
 197 1 5   0.136147  18.115334  19.001932  15.587815   # H_
 198 1 3  -0.066615  17.795099  18.517336  13.558969   # C_3
 199 1 5   0.075491  16.740620  18.460203  13.197540   # H_
 200 1 5   0.069345  18.045574  17.561598  13.976496   # H_
 201 1 3   0.076678  18.925341  18.481110  12.234350   # C_3
 202 1 3  -0.184524  18.236638  19.285114  11.019237   # C_3
 203 1 3  -0.214999  19.488392  17.259166  11.512320   # C_3
 204 1 3   0.091693  20.245198  18.985165  12.738198   # C_3
 205 1 5   0.076076  17.861547  18.680041  10.146508   # H_
 206 1 5   0.111231  18.993652  19.931173  10.497587   # H_
 207 1 5   0.107695  17.446711  19.956428  11.451875   # H_
 208 1 5   0.091091  19.409730  17.322923  10.442317   # H_
 209 1 5   0.110078  19.058030  16.385402  11.998780   # H_
 210 1 5   0.119712  20.603522  17.084868  11.448977   # H_
 211 1 5  -0.056771   0.346939  18.278246  12.982256   # H_
 212 1 5  -0.052988   0.000621  19.699536  12.127122   # H_
 213 1 5   0.076738  20.004867  19.430844  13.605545   # H_
 214 1 3   0.535655  17.520819  10.350200   7.170619   # C_3
 215 1 2  -0.737602  17.171810  10.350200   8.377659   # O_3
 216 1 2  -0.712928  18.727859  10.350200   6.821610   # O_3
 217 1 3  -0.174456  16.456818  10.350200   6.106618   # C_3
 218 1 3   0.081004  16.883867  10.350200   4.812636   # C_3
 219 1 4  -0.147676  17.969603   9.238382   4.386208   # N_3
 220 1 5   0.029838  16.119815  10.350200   2.701609   # H_
 221 1 3  -0.008208  15.887971  10.350200   3.817568   # C_3
 222 1 3  -0.132656  14.593989  10.350200   4.243582   # C_3
 223 1 3   0.002845  14.167768  10.350200   5.537564   # C_3
 224 1 3   0.026833  15.162836  10.350200   6.533667   # C_3
 225 1 5   0.028532  14.930785  10.350200   7.649626   # H_
 226 1 5   0.030735  13.051809  10.350200   5.769615   # H_
 227 1 2  -0.662285  12.322948  10.350200   3.528590   # O_3
 228 1 3   0.543282  13.529988  10.350200   3.179581   # C_3
 229 1 2  -0.669235  13.878997  10.350200   1.972541   # O_3
 230 1 5   0.111593  18.106847   8.651318   5.222504   # H_
 231 1 3  -0.081384  17.779574   8.187629   3.186206   # C_3
 232 1 5   0.052637  16.731719   8.152853   2.799522   # H_
 233 1 5   0.069628  18.006864   7.222991   3.593589   # H_
 234 1 3   0.066753  18.922236   8.140432   1.868004   # C_3
 235 1 3  -0.286903  18.256925   8.954372   0.649165   # C_3
 236 1 3  -0.198500  19.493153   6.916211   1.148251   # C_3
 237 1 3   0.118653  20.243749   8.631653   2.396899   # C_3
 238 1 5   0.166376  17.864031   8.364825  20.472696   # H_
 239 1 5   0.043330  19.034018   9.584078   0.128549   # H_
 240 1 5   0.055529  17.479004   9.638520   1.079319   # H_
 241 1 5   0.048696  19.407660   6.980175   0.075142   # H_
 242 1 5   0.103841  19.062170   6.046587   1.644233   # H_
 243 1 5   0.101834  20.606420   6.728251   1.094844   # H_
 244 1 5  -0.067741   0.336174   7.918110   2.649651   # H_
 245 1 5  -0.103159   0.005175   9.364033   1.780234   # H_
 246 1 5   0.037121  19.972574   9.077953   3.257829   # H_
 247 1 3   0.537875   7.170619   0.000000   7.170619   # C_3
 248 1 2  -0.700282   6.821610   0.000000   8.377659   # O_3
 249 1 2  -0.708753   8.377659   0.000000   6.821610   # O_3
 250 1 3  -0.175448   6.106618   0.000000   6.106618   # C_3
 251 1 3   0.019423   6.533667   0.000000   4.812636   # C_3
 252 1 4  -0.090273   7.621887  19.594999   4.382896   # N_3
 253 1 5  -0.001385   5.769615   0.000000   2.701609   # H_
 254 1 3  -0.002975   5.537564   0.000000   3.817568   # C_3
 255 1 3  -0.162995   4.243582   0.000000   4.243582   # C_3
 256 1 3   0.001497   3.817568   0.000000   5.537564   # C_3
 257 1 3   0.003177   4.812636   0.000000   6.533667   # C_3
 258 1 5   0.008623   4.580585   0.000000   7.649626   # H_
 259 1 5  -0.006416   2.701609   0.000000   5.769615   # H_
 260 1 2  -0.703631   1.972748   0.000000   3.528590   # O_3
 261 1 3   0.545997   3.179581   0.000000   3.179581   # C_3
 262 1 2  -0.711086   3.528590   0.000000   1.972541   # O_3
 263 1 5   0.113550   7.746090  19.001518   5.216294   # H_
 264 1 3  -0.094488   7.422128  18.549214   3.168610   # C_3
 265 1 5   0.079867   6.380898  18.535552   2.759570   # H_
 266 1 5   0.055624   7.630995  17.579401   3.572889   # H_
 267 1 3   0.183209   8.573485  18.491460   1.853928   # C_3
 268 1 3  -0.343343   7.921215  19.310161   0.626187   # C_3
 269 1 3  -0.225627   9.156201  17.271793   1.132312   # C_3
 270 1 3  -0.329595   9.893549  18.984130   2.403523   # C_3
 271 1 5   0.190116   7.516522  18.727652  20.458619   # H_
 272 1 5   0.076290   8.708658  19.930966   0.092324   # H_
 273 1 5   0.123353   7.152402  19.997207   1.051994   # H_
 274 1 5   0.034263   9.064705  17.333687   0.054028   # H_
 275 1 5   0.079661   8.720872  16.400720   1.633676   # H_
 276 1 5   0.045247  10.264707  17.082177   1.098570   # H_
 277 1 5   0.096529  10.684718  18.275762   2.658759   # H_
 278 1 5   0.124681  10.353098  19.728102   1.787273   # H_
 279 1 5   0.158156   9.602709  19.424013   3.259899   # H_
 280 1 3   0.548481   7.170619  10.350200  17.520819   # C_3
 281 1 2  -0.632314   6.821610  10.350200  18.727859   # O_3
 282 1 2  -0.670632   8.377659  10.350200  17.171810   # O_3
 283 1 3  -0.172809   6.106618  10.350200  16.456818   # C_3
 284 1 3   0.082899   6.533667  10.350200  15.162836   # C_3
 285 1 4  -0.149115   7.618368   9.236725  14.738064   # N_3
 286 1 5   0.035054   5.769615  10.350200  13.051809   # H_
 287 1 3  -0.010759   5.537564  10.350200  14.167768   # C_3
 288 1 3  -0.135394   4.243582  10.350200  14.593782   # C_3
 289 1 3   0.001142   3.817568  10.350200  15.887764   # C_3
 290 1 3   0.029137   4.812636  10.350200  16.883867   # C_3
 291 1 5   0.030020   4.580585  10.350200  17.999826   # H_
 292 1 5   0.028803   2.701609  10.350200  16.119815   # H_
 293 1 2  -0.753891   1.972748  10.350200  13.878790   # O_3
 294 1 3   0.533192   3.179581  10.350200  13.529781   # C_3
 295 1 2  -0.746433   3.528590  10.350200  12.322741   # O_3
 296 1 5   0.093350   7.754577   8.650697  15.575809   # H_
 297 1 3  -0.101363   7.429788   8.184938  13.540339   # C_3
 298 1 5   0.057046   6.381312   8.151404  13.154690   # H_
 299 1 5   0.056505   7.656664   7.220300  13.949586   # H_
 300 1 3   0.136679   8.572450   8.137741  12.219860   # C_3
 301 1 3  -0.197527   7.904862   8.949611  11.002056   # C_3
 302 1 3  -0.219182   9.145230   6.913727  11.500728   # C_3
 303 1 3  -0.282079   9.892721   8.633102  12.747513   # C_3
 304 1 5   0.057538   7.517764   8.353646  10.125394   # H_
 305 1 5   0.050291   8.676366   9.586976  10.482269   # H_
 306 1 5   0.057404   7.122801   9.628791  11.432003   # H_
 307 1 5   0.069601   9.061393   6.978105  10.427205   # H_
 308 1 5   0.082494   8.715282   6.041412  11.991535   # H_
 309 1 5   0.058575  10.259532   6.729907  11.446286   # H_
 310 1 5   0.081081  10.688031   7.922250  12.999644   # H_
 311 1 5   0.079343  10.352684   9.363205  12.128985   # H_
 312 1 5   0.111916   9.625065   9.079402  13.606373   # H_
 313 1 3   0.532783  17.520819   3.179581   0.000000   # C_3
 314 1 2  -0.730248  18.727859   3.528590   0.000000   # O_3
 315 1 2  -0.771809  17.171810   1.972541   0.000000   # O_3
 316 1 3  -0.157286  16.456818   4.243582   0.000000   # C_3
 317 1 3   0.022453  15.162836   3.816533   0.000000   # C_3
 318 1 4  -0.016944  14.754417   2.306232  20.283287   # N_3
 319 1 5   0.017102  13.051809   4.580585   0.000000   # H_
 320 1 3  -0.012003  14.167768   4.812636   0.000000   # C_3
 321 1 3  -0.158665  14.593782   6.106618   0.000000   # C_3
 322 1 3   0.007064  15.887764   6.532632   0.000000   # C_3
 323 1 3   0.004058  16.883867   5.537564   0.000000   # C_3
 324 1 5   0.023715  17.999826   5.769615   0.000000   # H_
 325 1 5   0.004083  16.119815   7.648591   0.000000   # H_
 326 1 2  -0.699073  13.878790   8.377452   0.000000   # O_3
 327 1 3   0.538592  13.529781   7.170619   0.000000   # C_3
 328 1 2  -0.711647  12.322741   6.821610   0.000000   # O_3
 329 1 5   0.082263  14.453433   2.285324  19.270209   # H_
 330 1 3  -0.386868  14.901183   0.840643   0.133311   # C_3
 331 1 5   0.106957  15.532338   1.009352   0.970228   # H_
 332 1 5   0.113983  15.432148   0.300363  20.061586   # H_
 333 1 3   0.338179  13.948344  20.249545   0.875213   # C_3
 334 1 3  -0.288469  12.723915  19.141660   0.854513   # C_3
 335 1 3  -0.488129  13.176012   0.545456   1.545078   # C_3
 336 1 3  -0.312593  14.915673  19.067966   1.519202   # C_3
 337 1 5   0.095171  12.463297  18.787890   1.840680   # H_
 338 1 5   0.062594  12.978737  18.290045   0.262895   # H_
 339 1 5   0.080237  11.817237  19.486736   0.533863   # H_
 340 1 5   0.104988  12.457915   0.678973   0.846853   # H_
 341 1 5   0.145133  13.562488   1.505126   1.882494   # H_
 342 1 5   0.116153  12.795952   0.077005   2.398348   # H_
 343 1 5   0.159078  15.830424  19.051406   2.135039   # H_
 344 1 5   0.107260  14.484898  18.098360   1.900711   # H_
 345 1 5   0.123389  15.269443  19.081215   0.618528   # H_
 346 1 3   0.547051  17.520819  13.529781  10.350200   # C_3
 347 1 2  -0.711330  18.727859  13.878790  10.350200   # O_3
 348 1 2  -0.727849  17.171810  12.322741  10.350200   # O_3
 349 1 3  -0.172953  16.456818  14.593782  10.350200   # C_3
 350 1 3   0.103293  15.162836  14.166733  10.350200   # C_3
 351 1 4  -0.131633  14.757315  12.654362   9.942816   # N_3
 352 1 5   0.055195  13.051809  14.930785  10.350200   # H_
 353 1 3  -0.029434  14.167768  15.162629  10.350200   # C_3
 354 1 3  -0.113312  14.593782  16.456611  10.350200   # C_3
 355 1 3   0.002181  15.887764  16.882832  10.350200   # C_3
 356 1 3   0.038420  16.883867  15.887764  10.350200   # C_3
 357 1 5   0.035400  17.999826  16.119815  10.350200   # H_
 358 1 5   0.050557  16.119815  17.998791  10.350200   # H_
 359 1 2  -0.610711  13.878790  18.727652  10.350200   # O_3
 360 1 3   0.528232  13.529781  17.520612  10.350200   # C_3
 361 1 2  -0.660869  12.322741  17.171603  10.350200   # O_3
 362 1 5   0.070882  14.410790  12.622690   8.949611   # H_
 363 1 3  -0.104839  14.894352  11.178216  10.485995   # C_3
 364 1 5   0.058253  15.515778  11.358309  11.338437   # H_
 365 1 5   0.010483  15.425731  10.647872   9.709316   # H_
 366 1 3   0.138677  13.937993   9.891479  11.231623   # C_3
 367 1 3  -0.245730  12.723294   8.798912  11.201814   # C_3
 368 1 3  -0.300697  13.176012  10.893793  11.901902   # C_3
 369 1 3  -0.280188  14.908635   8.714661  11.869816   # C_3
 370 1 5   0.070883  12.460813   8.434999  12.193571   # H_
 371 1 5   0.088433  12.967766   7.945435  10.601503   # H_
 372 1 5   0.074955  11.824482   9.147093  10.876611   # H_
 373 1 5   0.090992  12.462055  11.037039  11.180700   # H_
 374 1 5   0.098819  13.550482  11.861122  12.234764   # H_
 375 1 5   0.107813  12.771319  10.427205  12.749997   # H_
 376 1 5   0.107152  15.820902   8.696031  12.499730   # H_
 377 1 5   0.090494  14.489452   7.736567  12.240147   # H_
 378 1 5   0.124117  15.274825   8.735776  10.976801   # H_
 379 1 3   0.559627   7.170619   3.179581  10.350200   # C_3
 380 1 2  -0.666476   8.377659   3.528590  10.350200   # O_3
 381 1 2  -0.656334   6.821610   1.972541  10.350200   # O_3
 382 1 3  -0.176064   6.106618   4.243582  10.350200   # C_3
 383 1 3   0.101194   4.812636   3.816533  10.350200   # C_3
 384 1 4  -0.123447   4.405873   2.304369   9.950061   # N_3
 385 1 5   0.053820   2.701609   4.580585  10.350200   # H_
 386 1 3  -0.027566   3.817568   4.812636  10.350200   # C_3
 387 1 3  -0.125474   4.243582   6.106618  10.350200   # C_3
 388 1 3   0.000203   5.537564   6.532632  10.350200   # C_3
 389 1 3   0.032407   6.533667   5.537564  10.350200   # C_3
 390 1 5   0.025981   7.649626   5.769615  10.350200   # H_
 391 1 5   0.033669   5.769615   7.648591  10.350200   # H_
 392 1 2  -0.660574   3.528590   8.377452  10.350200   # O_3
 393 1 3   0.535823   3.179581   7.170619  10.350200   # C_3
 394 1 2  -0.665195   1.972541   6.821610  10.350200   # O_3
 395 1 5   0.070529   4.033266   2.260691   8.968862   # H_
 396 1 3  -0.190206   4.534009   0.825739  10.489514   # C_3
 397 1 5   0.068607   5.141772   1.026740  11.349822   # H_
 398 1 5   0.001387   5.068079   0.299328   9.717596   # H_
 399 1 3   0.338800   3.577857  20.234227  11.236798   # C_3
 400 1 3  -0.294235   2.373094  19.149319  11.194569   # C_3
 401 1 3  -0.479412   2.817738   0.535933  11.916806   # C_3
 402 1 3  -0.310112   4.552018  19.063412  11.870437   # C_3
 403 1 5   0.094782   2.112890  18.767190  12.185290   # H_
 404 1 5   0.095822   2.618808  18.303294  10.581009   # H_
 405 1 5   0.102142   1.473661  19.515302  10.875162   # H_
 406 1 5   0.097993   2.112683   0.683527  11.180700   # H_
 407 1 5   0.140899   3.210218   1.493534  12.266643   # H_
 408 1 5   0.114684   2.395036   0.071209  12.741924   # H_
 409 1 5   0.135717   5.466769  19.045403  12.506561   # H_
 410 1 5   0.100767   4.139873  18.087389  12.238490   # H_
 411 1 5   0.143106   4.925039  19.083285  10.980527   # H_
 412 1 3   0.546317   7.170619  13.529781   0.000000   # C_3
 413 1 2  -0.698889   8.377659  13.878790   0.000000   # O_3
 414 1 2  -0.697863   6.821610  12.322741   0.000000   # O_3
 415 1 3  -0.165263   6.106618  14.593782   0.000000   # C_3
 416 1 3   0.027482   4.812636  14.166733   0.000000   # C_3
 417 1 4  -0.025808   4.407322  12.655811  20.289911   # N_3
 418 1 5   0.019487   2.701609  14.930785   0.000000   # H_
 419 1 3  -0.016869   3.817568  15.162629   0.000000   # C_3
 420 1 3  -0.149519   4.243582  16.456611   0.000000   # C_3
 421 1 3   0.001943   5.537564  16.882832   0.000000   # C_3
 422 1 3   0.007387   6.533667  15.887764   0.000000   # C_3
 423 1 5   0.014400   7.649626  16.119815   0.000000   # H_
 424 1 5   0.017940   5.769615  17.998791   0.000000   # H_
 425 1 2  -0.727033   3.528590  18.727652   0.000000   # O_3
 426 1 3   0.526022   3.179581  17.520612   0.000000   # C_3
 427 1 2  -0.789572   1.972541  17.171603   0.000000   # O_3
 428 1 5   0.084578   4.058934  12.628279  19.296706   # H_
 429 1 3  -0.307730   4.543531  11.180907   0.132483   # C_3
 430 1 5   0.099649   5.163922  11.357481   0.986788   # H_
 431 1 5   0.128907   5.074910  10.646423  20.055790   # H_
 432 1 3   0.118301   3.588207   9.895826   0.879146   # C_3
 433 1 3  -0.234918   2.372887   8.803259   0.852856   # C_3
 434 1 3  -0.273086   2.829538  10.899589   1.551288   # C_3
 435 1 3  -0.257985   4.560712   8.717973   1.515890   # C_3
 436 1 5   0.068071   2.111855   8.442037   1.842957   # H_
 437 1 5   0.047120   2.617152   7.948333   0.255029   # H_
 438 1 5   0.031796   1.474282   9.152061   0.527653   # H_
 439 1 5   0.063553   2.115581  11.041800   0.831121   # H_
 440 1 5   0.092368   3.205457  11.866918   1.884150   # H_
 441 1 5   0.100893   2.429606  10.431967   2.400004   # H_
 442 1 5   0.083876   5.474014   8.698101   2.143940   # H_
 443 1 5   0.083674   4.138838   7.741950   1.889119   # H_
 444 1 5   0.095287   4.924832   8.737225   0.621840   # H_
 445 1 3   0.530403  17.520819  17.520819   0.000000   # C_3
 446 1 2  -0.658657  18.727859  17.171810   0.000000   # O_3
 447 1 2  -0.671926  17.171810  18.727859   0.000000   # O_3
 448 1 3  -0.165271  16.456818  16.456818   0.000000   # C_3
 449 1 3   0.022870  15.162836  16.883867   0.000000   # C_3
 450 1 4  -0.096307  14.735373  17.971052  19.586925   # N_3
 451 1 5   0.006183  13.051809  16.119815   0.000000   # H_
 452 1 3  -0.005089  14.167768  15.887971   0.000000   # C_3
 453 1 3  -0.161618  14.593782  14.593989   0.000000   # C_3
 454 1 3   0.001863  15.887764  14.167768   0.000000   # C_3
 455 1 3   0.005569  16.883867  15.162836   0.000000   # C_3
 456 1 5   0.015330  17.999826  14.930785   0.000000   # H_
 457 1 5  -0.001738  16.119815  13.051809   0.000000   # H_
 458 1 2  -0.781804  13.878790  12.322948   0.000000   # O_3
 459 1 3   0.533750  13.529781  13.529988   0.000000   # C_3
 460 1 2  -0.777815  12.322741  13.878997   0.000000   # O_3
 461 1 5   0.132517  15.570841  18.101465  18.997999   # H_
 462 1 3  -0.066132  13.531644  17.773156  18.536794   # C_3
 463 1 5   0.068640  13.148480  16.721162  18.504916   # H_
 464 1 5   0.067660  13.937993  17.992581  17.572984   # H_
 465 1 3   0.072843  12.215099  18.932793  18.484836   # C_3
 466 1 3  -0.186392  10.997502  18.264170  19.301053   # C_3
 467 1 3  -0.211743  11.483547  19.504124  17.275312   # C_3
 468 1 3   0.096256  12.745857  20.251822  18.975643   # C_3
 469 1 5   0.076952  10.139056  17.855751  18.725996   # H_
 470 1 5   0.108063  10.475230  19.047473  19.916062   # H_
 471 1 5   0.104049  11.439455  17.500532  19.998242   # H_
 472 1 5   0.090006  10.410231  19.401864  17.330168   # H_
 473 1 5   0.108741  11.980564  19.071072  16.410656   # H_
 474 1 5   0.119286  11.418341  20.616563  17.074311   # H_
 475 1 5  -0.057387  13.003991   0.353356  18.278246   # H_
 476 1 5  -0.054528  12.139129   0.016146  19.720650   # H_
 477 1 5   0.071507  13.608857  19.955600  19.422978   # H_
 478 1 3   0.545252  17.520819   7.170619  10.350200   # C_3
 479 1 2  -0.620627  18.727859   6.821610  10.350200   # O_3
 480 1 2  -0.670550  17.171810   8.377659  10.350200   # O_3
 481 1 3  -0.171646  16.456818   6.106618  10.350200   # C_3
 482 1 3   0.082868  15.162836   6.533667  10.350200   # C_3
 483 1 4  -0.149290  14.735373   7.620438   9.240659   # N_3
 484 1 5   0.035137  13.051809   5.769615  10.350200   # H_
 485 1 3  -0.010427  14.167768   5.537564  10.350200   # C_3
 486 1 3  -0.135451  14.593782   4.243582  10.350200   # C_3
 487 1 3   0.001574  15.887764   3.817568  10.350200   # C_3
 488 1 3   0.028624  16.883867   4.812636  10.350200   # C_3