 (written by mofun)

480 atoms
0 bonds
0 angles
0 dihedrals
0 impropers

4 atom types
   0.000000  20.700400 xlo xhi
   0.000000  20.700400 ylo yhi
   0.000000  20.700400 zlo zhi

Masses

 1 91.2240   # Zr3+4
 2 15.9994   # O_3
 3 12.0107   # C_3
 4 1.0079   # H_

Pair Coeffs

 1   0.069000   2.783168 # Zr3+4
 2   0.060000   3.118146 # O_3
 3   0.105000   3.430851 # C_3
 4   0.044000   2.571134 # H_

Atoms

 1 1 1   3.166810   2.481771   0.000000   0.000000   # Zr3+4
 2 1 1   3.190890   2.481771  10.350200  10.350200   # Zr3+4
 3 1 1   3.175720  12.831971   0.000000  10.350200   # Zr3+4
 4 1 1   3.180150  12.831971  10.350200   0.000000   # Zr3+4
 5 1 1   3.165090  18.218629   0.000000   0.000000   # Zr3+4
 6 1 1   3.191710  18.218629  10.350200  10.350200   # Zr3+4
 7 1 1   3.178980   7.868429   0.000000  10.350200   # Zr3+4
 8 1 1   3.177560   7.868429  10.350200   0.000000   # Zr3+4
 9 1 1   3.166810   0.000000   2.481771   0.000000   # Zr3+4
 10 1 1   3.144350   0.000000  12.831971  10.350200   # Zr3+4
 11 1 1   3.190880  10.350200   2.481771  10.350200   # Zr3+4
 12 1 1   3.180120  10.350200  12.831971   0.000000   # Zr3+4
 13 1 1   3.165320   0.000000  18.218629   0.000000   # Zr3+4
 14 1 1   3.210570   0.000000   7.868429  10.350200   # Zr3+4
 15 1 1   3.191710  10.350200  18.218629  10.350200   # Zr3+4
 16 1 1   3.177380  10.350200   7.868429   0.000000   # Zr3+4
 17 1 1   3.196670   0.000000   0.000000   2.481771   # Zr3+4
 18 1 1   3.175700   0.000000  10.350200  12.831971   # Zr3+4
 19 1 1   3.144370  10.350200   0.000000  12.831971   # Zr3+4
 20 1 1   3.191440  10.350200  10.350200   2.481771   # Zr3+4
 21 1 1   3.133550   0.000000   0.000000  18.218629   # Zr3+4
 22 1 1   3.178970   0.000000  10.350200   7.868429   # Zr3+4
 23 1 1   3.210610  10.350200   0.000000   7.868429   # Zr3+4
 24 1 1   3.192260  10.350200  10.350200  18.218629   # Zr3+4
 25 1 2  -1.315190   1.161292   9.188908   9.188908   # O_3
 26 1 2  -1.211130  11.511492  19.539108   9.188908   # O_3
 27 1 2  -1.319400  11.511492   9.188908  19.539108   # O_3
 28 1 2  -1.315030   9.188908   1.161292   9.188908   # O_3
 29 1 2  -1.319080   9.188908  11.511492  19.539108   # O_3
 30 1 2  -1.164500  19.539108  19.539108   1.161292   # O_3
 31 1 2  -1.211370  19.539108   9.188908  11.511492   # O_3
 32 1 2  -1.370900   1.161292   1.161292   1.161292   # O_3
 33 1 2  -1.415570  11.511492  11.511492   1.161292   # O_3
 34 1 2  -1.352740  19.539108   1.161292   1.161292   # O_3
 35 1 2  -1.435530  19.539108  11.511492  11.511492   # O_3
 36 1 2  -1.538060   9.188908   1.161292  11.511492   # O_3
 37 1 2  -1.426730   9.188908  11.511492   1.161292   # O_3
 38 1 2  -1.352850   1.161292  19.539108   1.161292   # O_3
 39 1 2  -1.410850   1.161292   9.188908  11.511492   # O_3
 40 1 2  -1.435900  11.511492  19.539108  11.511492   # O_3
 41 1 2  -1.427230  11.511492   9.188908   1.161292   # O_3
 42 1 2  -1.279000  19.539108  19.539108  19.539108   # O_3
 43 1 2  -1.295420  19.539108   9.188908   9.188908   # O_3
 44 1 2  -1.295590   9.188908  19.539108   9.188908   # O_3
 45 1 2  -1.329360   9.188908   9.188908  19.539108   # O_3
 46 1 2  -1.482170   1.161292   1.161292  19.539108   # O_3
 47 1 2  -1.537930   1.161292  11.511492   9.188908   # O_3
 48 1 2  -1.410940  11.511492   1.161292   9.188908   # O_3
 49 1 3   0.555554   3.179581   0.000000  17.520819   # C_3
 50 1 2  -0.711996   3.528590   0.000000  18.727859   # O_3
 51 1 2  -0.793308   1.972541   0.000000  17.171810   # O_3
 52 1 3  -0.197437   4.243582   0.000000  16.456818   # C_3
 53 1 3  -0.025461   3.816533   0.000000  15.162836   # C_3
 54 1 4   0.029452   2.700574   0.000000  14.930785   # H_
 55 1 2  -0.311118   4.431542   0.079697  12.790984   # O_3
 56 1 3   0.166970   4.812636   0.000000  14.167768   # C_3
 57 1 3  -0.200993   6.106618   0.000000  14.593782   # C_3
 58 1 3  -0.022666   6.532632   0.000000  15.887764   # C_3
 59 1 3   0.181006   5.537564   0.000000  16.883867   # C_3
 60 1 2  -0.284247   5.913483   0.030844  18.256718   # O_3
 61 1 4   0.050332   7.648591   0.000000  16.119815   # H_
 62 1 2  -0.789905   8.377452   0.000000  13.878790   # O_3
 63 1 3   0.556693   7.170619   0.000000  13.529781   # C_3
 64 1 2  -0.767818   6.821610   0.000000  12.322741   # O_3
 65 1 4   0.150363   4.465904   1.057169  12.597642   # H_
 66 1 4   0.184740   5.817847   0.965674  18.566396   # H_
 67 1 3   0.564905   3.179581  10.350200   7.170619   # C_3
 68 1 2  -0.641593   3.528590  10.350200   8.377659   # O_3
 69 1 2  -0.666330   1.972541  10.350200   6.821610   # O_3
 70 1 3  -0.181429   4.243582  10.350200   6.106618   # C_3
 71 1 3  -0.018693   3.816533  10.350200   4.812636   # C_3
 72 1 4   0.046702   2.700574  10.350200   4.580585   # H_
 73 1 2  -0.287745   4.423675  10.430725   2.441819   # O_3
 74 1 3   0.175498   4.812636  10.350200   3.817568   # C_3
 75 1 3  -0.184121   6.106618  10.350200   4.243582   # C_3
 76 1 3  -0.018757   6.532632  10.350200   5.537564   # C_3
 77 1 3   0.180061   5.537564  10.350200   6.533667   # C_3
 78 1 2  -0.272148   5.854901  10.315837   7.933014   # O_3
 79 1 4   0.062732   7.648591  10.350200   5.769615   # H_
 80 1 2  -0.737193   8.377452  10.350200   3.528590   # O_3
 81 1 3   0.555387   7.170619  10.350200   3.179581   # C_3
 82 1 2  -0.736511   6.821610  10.350200   1.972541   # O_3
 83 1 4   0.143382   4.399663  11.411717   2.264831   # H_
 84 1 4   0.152356   6.048243   9.380800   8.183903   # H_
 85 1 3   0.536093  13.529781   0.000000   7.170619   # C_3
 86 1 2  -0.702927  13.878790   0.000000   8.377659   # O_3
 87 1 2  -0.691174  12.322741   0.000000   6.821610   # O_3
 88 1 3  -0.141492  14.593782   0.000000   6.106618   # C_3
 89 1 3  -0.058274  14.166733   0.000000   4.812636   # C_3
 90 1 4   0.035953  13.050774   0.000000   4.580585   # H_
 91 1 2  -0.322708  14.761869   0.082595   2.443889   # O_3
 92 1 3   0.186606  15.162629   0.000000   3.817568   # C_3
 93 1 3  -0.210684  16.456611   0.000000   4.243582   # C_3
 94 1 3   0.028469  16.882832   0.000000   5.537564   # C_3
 95 1 3   0.029443  15.887764   0.000000   6.533667   # C_3
 96 1 2  -0.095563  16.221454  20.666244   7.935498   # O_3
 97 1 4   0.046824  17.998791   0.000000   5.769615   # H_
 98 1 2  -0.633642  18.727652   0.000000   3.528590   # O_3
 99 1 3   0.563379  17.520612   0.000000   3.179581   # C_3
 100 1 2  -0.693597  17.171603   0.000000   1.972541   # O_3
 101 1 4   0.145459  14.660851   1.062966   2.294639   # H_
 102 1 4   0.175178  16.487662  19.732863   8.129254   # H_
 103 1 3   0.548334  13.529781  10.350200  17.520819   # C_3
 104 1 2  -0.664568  13.878790  10.350200  18.727859   # O_3
 105 1 2  -0.722730  12.322741  10.350200  17.171810   # O_3
 106 1 3  -0.172323  14.593782  10.350200  16.456818   # C_3
 107 1 3  -0.012800  14.166733  10.350200  15.162836   # C_3
 108 1 4   0.065797  13.050774  10.350200  14.930785   # H_
 109 1 2  -0.265256  14.759799  10.433209  12.794503   # O_3
 110 1 3   0.179794  15.162629  10.350200  14.167768   # C_3
 111 1 3  -0.168316  16.456611  10.350200  14.593782   # C_3
 112 1 3  -0.006195  16.882832  10.350200  15.887764   # C_3
 113 1 3   0.193610  15.887764  10.350200  16.883867   # C_3
 114 1 2  -0.235433  16.259957  10.321012  18.258581   # O_3
 115 1 4   0.084297  17.998791  10.350200  16.119815   # H_
 116 1 2  -0.605145  18.727652  10.350200  13.878790   # O_3
 117 1 3   0.556602  17.520612  10.350200  13.529781   # C_3
 118 1 2  -0.635982  17.171603  10.350200  12.322741   # O_3
 119 1 4   0.149332  14.642014  11.412752  12.653327   # H_
 120 1 4   0.195867  16.172809   9.383491  18.565154   # H_
 121 1 3   0.527573  17.520819   0.000000  17.520819   # C_3
 122 1 2  -0.719847  17.171810   0.000000  18.727859   # O_3
 123 1 2  -0.719837  18.727859   0.000000  17.171810   # O_3
 124 1 3  -0.148083  16.456818   0.000000  16.456818   # C_3
 125 1 3  -0.003481  16.883867   0.000000  15.162836   # C_3
 126 1 4   0.051721  17.999826   0.000000  14.930785   # H_
 127 1 2  -0.102972  16.200961  20.580752  12.758278   # O_3
 128 1 3   0.055414  15.887971   0.000000  14.167768   # C_3
 129 1 3  -0.180408  14.593989   0.000000  14.593782   # C_3
 130 1 3   0.007199  14.167768   0.000000  15.887764   # C_3
 131 1 3   0.044284  15.162836   0.000000  16.883867   # C_3
 132 1 2  -0.077850  14.791264  20.669763  18.258788   # O_3
 133 1 4   0.030261  13.051809   0.000000  16.119815   # H_
 134 1 2  -0.795781  12.322948   0.000000  13.878790   # O_3
 135 1 3   0.543490  13.529988   0.000000  13.529781   # C_3
 136 1 2  -0.797888  13.878997   0.000000  12.322741   # O_3
 137 1 4   0.170850  15.964562  19.657928  12.473233   # H_
 138 1 4   0.194059  14.879448  19.731621  18.564326   # H_
 139 1 3   0.547534  17.520819  10.350200   7.170619   # C_3
 140 1 2  -0.715197  17.171810  10.350200   8.377659   # O_3
 141 1 2  -0.661496  18.727859  10.350200   6.821610   # O_3
 142 1 3  -0.167066  16.456818  10.350200   6.106618   # C_3
 143 1 3  -0.007086  16.883867  10.350200   4.812636   # C_3
 144 1 4   0.102845  17.999826  10.350200   4.580585   # H_
 145 1 2  -0.260660  16.209034  10.231173   2.402074   # O_3
 146 1 3   0.185718  15.887971  10.350200   3.817568   # C_3
 147 1 3  -0.180715  14.593989  10.350200   4.243582   # C_3
 148 1 3  -0.010301  14.167768  10.350200   5.537564   # C_3
 149 1 3   0.182737  15.162836  10.350200   6.533667   # C_3
 150 1 2  -0.272043  14.788366  10.319356   7.907346   # O_3
 151 1 4   0.064218  13.051809  10.350200   5.769615   # H_
 152 1 2  -0.654502  12.322948  10.350200   3.528590   # O_3
 153 1 3   0.566083  13.529988  10.350200   3.179581   # C_3
 154 1 2  -0.653148  13.878997  10.350200   1.972541   # O_3
 155 1 4   0.155131  15.952556   9.300690   2.160915   # H_
 156 1 4   0.157899  14.881311   9.383491   8.215989   # H_
 157 1 3   0.566216   7.170619   0.000000   7.170619   # C_3
 158 1 2  -0.689367   6.821610   0.000000   8.377659   # O_3
 159 1 2  -0.691681   8.377659   0.000000   6.821610   # O_3
 160 1 3  -0.220883   6.106618   0.000000   6.106618   # C_3
 161 1 3   0.023759   6.533667   0.000000   4.812636   # C_3
 162 1 4   0.022945   7.649626   0.000000   4.580585   # H_
 163 1 2  -0.109981   5.909343  20.580959   2.402074   # O_3
 164 1 3   0.020078   5.537564   0.000000   3.817568   # C_3
 165 1 3  -0.144063   4.243582   0.000000   4.243582   # C_3
 166 1 3  -0.059698   3.817568   0.000000   5.537564   # C_3
 167 1 3   0.187576   4.812636   0.000000   6.533667   # C_3
 168 1 2  -0.317817   4.497162   0.032500   7.932186   # O_3
 169 1 4   0.032850   2.701609   0.000000   5.769615   # H_
 170 1 2  -0.700131   1.972748   0.000000   3.528590   # O_3
 171 1 3   0.540937   3.179581   0.000000   3.179581   # C_3
 172 1 2  -0.710067   3.528590   0.000000   1.972541   # O_3
 173 1 4   0.155207   6.037686  19.597276   2.289050   # H_
 174 1 4   0.153035   4.353294   0.971884   8.197358   # H_
 175 1 3   0.555514   7.170619  10.350200  17.520819   # C_3
 176 1 2  -0.584365   6.821610  10.350200  18.727859   # O_3
 177 1 2  -0.644953   8.377659  10.350200  17.171810   # O_3
 178 1 3  -0.163251   6.106618  10.350200  16.456818   # C_3
 179 1 3  -0.015816   6.533667  10.350200  15.162836   # C_3
 180 1 4   0.067700   7.649626  10.350200  14.930785   # H_
 181 1 2  -0.268400   5.852003  10.232415  12.758692   # O_3
 182 1 3   0.182366   5.537564  10.350200  14.167768   # C_3
 183 1 3  -0.185947   4.243582  10.350200  14.593782   # C_3
 184 1 3  -0.008129   3.817568  10.350200  15.887764   # C_3
 185 1 3   0.181798   4.812636  10.350200  16.883867   # C_3
 186 1 2  -0.248008   4.495920  10.383942  18.283628   # O_3
 187 1 4   0.058312   2.701609  10.350200  16.119815   # H_
 188 1 2  -0.752126   1.972748  10.350200  13.878790   # O_3
 189 1 3   0.559598   3.179581  10.350200  13.529781   # C_3
 190 1 2  -0.731481   3.528590  10.350200  12.322741   # O_3
 191 1 4   0.156040   5.641273   9.300276  12.476752   # H_
 192 1 4   0.183167   4.313549  11.320221  18.537208   # H_
 193 1 3   0.551646  17.520819   3.179581   0.000000   # C_3
 194 1 2  -0.705990  18.727859   3.528590   0.000000   # O_3
 195 1 2  -0.780068  17.171810   1.972541   0.000000   # O_3
 196 1 3  -0.194462  16.456818   4.243582   0.000000   # C_3
 197 1 3  -0.026186  15.162836   3.816533   0.000000   # C_3
 198 1 4   0.030993  14.930785   2.700574   0.000000   # H_
 199 1 2  -0.310377  12.792433   4.421605   0.080939   # O_3
 200 1 3   0.168603  14.167768   4.812636   0.000000   # C_3
 201 1 3  -0.198619  14.593782   6.106618   0.000000   # C_3
 202 1 3  -0.023414  15.887764   6.532632   0.000000   # C_3
 203 1 3   0.180089  16.883867   5.537564   0.000000   # C_3
 204 1 2  -0.286244  18.256097   5.915346   0.029188   # O_3
 205 1 4   0.042258  16.119815   7.648591   0.000000   # H_
 206 1 2  -0.705123  13.878790   8.377452   0.000000   # O_3
 207 1 3   0.562340  13.529781   7.170619   0.000000   # C_3
 208 1 2  -0.689678  12.322741   6.821610   0.000000   # O_3
 209 1 4   0.146369  12.623104   4.380412   1.062552   # H_
 210 1 4   0.191753  18.567845   5.815984   0.962155   # H_
 211 1 3   0.551104  17.520819  13.529781  10.350200   # C_3
 212 1 2  -0.672102  18.727859  13.878790  10.350200   # O_3
 213 1 2  -0.723641  17.171810  12.322741  10.350200   # O_3
 214 1 3  -0.171666  16.456818  14.593782  10.350200   # C_3
 215 1 3  -0.012633  15.162836  14.166733  10.350200   # C_3
 216 1 4   0.065941  14.930785  13.050774  10.350200   # H_
 217 1 2  -0.264967  12.794296  14.761041  10.433209   # O_3
 218 1 3   0.180208  14.167768  15.162629  10.350200   # C_3
 219 1 3  -0.168421  14.593782  16.456611  10.350200   # C_3
 220 1 3  -0.006244  15.887764  16.882832  10.350200   # C_3
 221 1 3   0.192286  16.883867  15.887764  10.350200   # C_3
 222 1 2  -0.233031  18.262100  16.252712  10.380216   # O_3
 223 1 4   0.082830  16.119815  17.998791  10.350200   # H_
 224 1 2  -0.605507  13.878790  18.727652  10.350200   # O_3
 225 1 3   0.556799  13.529781  17.520612  10.350200   # C_3
 226 1 2  -0.635959  12.322741  17.171603  10.350200   # O_3
 227 1 4   0.149324  12.650014  14.651536  11.413166   # H_
 228 1 4   0.192198  18.557081  16.181710  11.323740   # H_
 229 1 3   0.564802   7.170619   3.179581  10.350200   # C_3
 230 1 2  -0.641445   8.377659   3.528590  10.350200   # O_3
 231 1 2  -0.666834   6.821610   1.972541  10.350200   # O_3
 232 1 3  -0.181146   6.106618   4.243582  10.350200   # C_3
 233 1 3  -0.018752   4.812636   3.816533  10.350200   # C_3
 234 1 4   0.046092   4.580585   2.700574  10.350200   # H_
 235 1 2  -0.285577   2.443268   4.414360  10.432174   # O_3
 236 1 3   0.175646   3.817568   4.812636  10.350200   # C_3
 237 1 3  -0.181364   4.243582   6.106618  10.350200   # C_3
 238 1 3  -0.019314   5.537564   6.532632  10.350200   # C_3
 239 1 3   0.179170   6.533667   5.537564  10.350200   # C_3
 240 1 2  -0.273245   7.932600   5.856557  10.315630   # O_3
 241 1 4   0.054442   5.769615   7.648591  10.350200   # H_
 242 1 2  -0.660073   3.528590   8.377452  10.350200   # O_3
 243 1 3   0.561534   3.179581   7.170619  10.350200   # C_3
 244 1 2  -0.642824   1.972541   6.821610  10.350200   # O_3
 245 1 4   0.140228   2.288222   4.328040  11.413166   # H_
 246 1 4   0.152716   8.178107   6.068736   9.383284   # H_
 247 1 3   0.563722   7.170619  13.529781   0.000000   # C_3
 248 1 2  -0.683522   8.377659  13.878790   0.000000   # O_3
 249 1 2  -0.704776   6.821610  12.322741   0.000000   # O_3
 250 1 3  -0.198840   6.106618  14.593782   0.000000   # C_3
 251 1 3  -0.025234   4.812636  14.166733   0.000000   # C_3
 252 1 4   0.029857   4.580585  13.050774   0.000000   # H_
 253 1 2  -0.315266   2.441198  14.779051   0.079904   # O_3
 254 1 3   0.165271   3.817568  15.162629   0.000000   # C_3
 255 1 3  -0.185558   4.243582  16.456611   0.000000   # C_3
 256 1 3  -0.025315   5.537564  16.882832   0.000000   # C_3
 257 1 3   0.181746   6.533667  15.887764   0.000000   # C_3
 258 1 2  -0.296319   7.931772  16.204480   0.034363   # O_3
 259 1 4   0.070045   5.769615  17.998791   0.000000   # H_
 260 1 2  -0.712914   3.528590  18.727652   0.000000   # O_3
 261 1 3   0.548839   3.179581  17.520612   0.000000   # C_3
 262 1 2  -0.763383   1.972541  17.171603   0.000000   # O_3
 263 1 4   0.148418   2.251790  14.794369   1.058618   # H_
 264 1 4   0.161252   8.191355  16.369255   0.971884   # H_
 265 1 3   0.556120  17.520819  17.520819   0.000000   # C_3
 266 1 2  -0.619017  18.727859  17.171810   0.000000   # O_3
 267 1 2  -0.636871  17.171810  18.727859   0.000000   # O_3
 268 1 3  -0.194950  16.456818  16.456818   0.000000   # C_3
 269 1 3   0.023570  15.162836  16.883867   0.000000   # C_3
 270 1 4   0.045353  14.930785  17.999826   0.000000   # H_
 271 1 2  -0.103854  12.761797  16.268444  20.573093   # O_3
 272 1 3   0.039270  14.167768  15.887971   0.000000   # C_3
 273 1 3  -0.141150  14.593782  14.593989   0.000000   # C_3
 274 1 3  -0.046264  15.887764  14.167768   0.000000   # C_3
 275 1 3   0.197598  16.883867  15.162836   0.000000   # C_3
 276 1 2  -0.277314  18.280316  14.843843   0.031258   # O_3
 277 1 4   0.065655  16.119815  13.051809   0.000000   # H_
 278 1 2  -0.763544  13.878790  12.322948   0.000000   # O_3
 279 1 3   0.532356  13.529781  13.529988   0.000000   # C_3
 280 1 2  -0.769581  12.322741  13.878997   0.000000   # O_3
 281 1 4   0.165369  12.698246  16.664029  19.666622   # H_
 282 1 4   0.195202  18.553148  14.767044   0.976852   # H_
 283 1 3   0.548764  17.520819   7.170619  10.350200   # C_3
 284 1 2  -0.572291  18.727859   6.821610  10.350200   # O_3
 285 1 2  -0.646497  17.171810   8.377659  10.350200   # O_3
 286 1 3  -0.157166  16.456818   6.106618  10.350200   # C_3
 287 1 3  -0.019740  15.162836   6.533667  10.350200   # C_3
 288 1 4   0.066922  14.930785   7.649626  10.350200   # H_
 289 1 2  -0.270878  12.757036   5.850761  10.229517   # O_3
 290 1 3   0.184767  14.167768   5.537564  10.350200   # C_3
 291 1 3  -0.190866  14.593782   4.243582  10.350200   # C_3
 292 1 3   0.001184  15.887764   3.817568  10.350200   # C_3
 293 1 3   0.165163  16.883867   4.812636  10.350200   # C_3
 294 1 2  -0.235101  18.297498   4.391590  10.392636   # O_3
 295 1 4   0.057241  16.119815   2.701609  10.350200   # H_
 296 1 2  -0.752672  13.878790   1.972748  10.350200   # O_3
 297 1 3   0.560898  13.529781   3.179581  10.350200   # C_3
 298 1 2  -0.732944  12.322741   3.528590  10.350200   # O_3
 299 1 4   0.157247  12.475510   5.593662   9.313731   # H_
 300 1 4   0.178766  18.473037   4.355157  11.368660   # H_
 301 1 3   0.547401   7.170619  17.520819  10.350200   # C_3
 302 1 2  -0.715300   8.377659  17.171810  10.350200   # O_3
 303 1 2  -0.661816   6.821610  18.727859  10.350200   # O_3
 304 1 3  -0.166717   6.106618  16.456818  10.350200   # C_3
 305 1 3  -0.009250   4.812636  16.883867  10.350200   # C_3
 306 1 4   0.102505   4.580585  17.999826  10.350200   # H_
 307 1 2  -0.268106   2.406421  16.201789  10.230552   # O_3
 308 1 3   0.189142   3.817568  15.887971  10.350200   # C_3
 309 1 3  -0.185319   4.243582  14.593989  10.350200   # C_3
 310 1 3  -0.008801   5.537564  14.167768  10.350200   # C_3
 311 1 3   0.183091   6.533667  15.162836  10.350200   # C_3
 312 1 2  -0.271661   7.907139  14.787745  10.320598   # O_3
 313 1 4   0.071548   5.769615  13.051809  10.350200   # H_
 314 1 2  -0.734343   3.528590  12.322948  10.350200   # O_3
 315 1 3   0.561351   3.179581  13.529988  10.350200   # C_3
 316 1 2  -0.749526   1.972541  13.878997  10.350200   # O_3
 317 1 4   0.159783   2.126552  15.950900   9.311661   # H_
 318 1 4   0.159138   8.216817  14.882967   9.385354   # H_
 319 1 3   0.537649   7.170619   7.170619   0.000000   # C_3
 320 1 2  -0.789586   8.377659   6.821610   0.000000   # O_3
 321 1 2  -0.777380   6.821610   8.377659   0.000000   # O_3
 322 1 3  -0.172853   6.106618   6.106618   0.000000   # C_3
 323 1 3  -0.007972   4.812636   6.533667   0.000000   # C_3
 324 1 4   0.030193   4.580585   7.649626   0.000000   # H_
 325 1 2  -0.125118   2.404972   5.915346  20.580131   # O_3
 326 1 3   0.049721   3.817568   5.537564   0.000000   # C_3
 327 1 3  -0.174664   4.243582   4.243582   0.000000   # C_3
 328 1 3  -0.004519   5.537564   3.817568   0.000000   # C_3
 329 1 3   0.046869   6.533667   4.812636   0.000000   # C_3
 330 1 2  -0.124713   7.908174   4.439822  20.669556   # O_3
 331 1 4   0.013324   5.769615   2.701609   0.000000   # H_
 332 1 2  -0.711651   3.528590   1.972748   0.000000   # O_3
 333 1 3   0.554593   3.179581   3.179581   0.000000   # C_3
 334 1 2  -0.708621   1.972541   3.528590   0.000000   # O_3
 335 1 4   0.154082   2.300021   6.127525  19.610524   # H_
 336 1 4   0.164144   8.214747   4.529041  19.732035   # H_
 337 1 3   0.551143   0.000000  17.520819   3.179581   # C_3
 338 1 2  -0.619173   0.000000  18.727859   3.528590   # O_3
 339 1 2  -0.706366   0.000000  17.171810   1.972541   # O_3
 340 1 3  -0.178565   0.000000  16.456818   4.243582   # C_3
 341 1 3  -0.033981   0.000000  15.162836   3.816533   # C_3
 342 1 4   0.028931   0.000000  14.930785   2.700574   # H_
 343 1 2  -0.311068   0.080525  12.792019   4.423675   # O_3
 344 1 3   0.171674   0.000000  14.167768   4.812636   # C_3
 345 1 3  -0.206089   0.000000  14.593782   6.106618   # C_3
 346 1 3  -0.011480   0.000000  15.887764   6.532632   # C_3
 347 1 3   0.154999   0.000000  16.883867   5.537564   # C_3
 348 1 2  -0.266561   0.049681  18.308676   5.970202   # O_3
 349 1 4   0.046776   0.000000  16.119815   7.648591   # H_
 350 1 2  -0.790553   0.000000  13.878790   8.377452   # O_3
 351 1 3   0.558704   0.000000  13.529781   7.170619   # C_3
 352 1 2  -0.767514   0.000000  12.322741   6.821610   # O_3
 353 1 4   0.150051   1.061517  12.614824   4.400491   # H_
 354 1 4   0.181021   1.026326  18.476556   6.031476   # H_
 355 1 3   0.535393   0.000000   7.170619  13.529781   # C_3
 356 1 2  -0.703307   0.000000   8.377659  13.878790   # O_3
 357 1 2  -0.691796   0.000000   6.821610  12.322741   # O_3
 358 1 3  -0.141328   0.000000   6.106618  14.593782   # C_3
 359 1 3  -0.060300   0.000000   4.812636  14.166733   # C_3
 360 1 4   0.035783   0.000000   4.580585  13.050774   # H_
 361 1 2  -0.327086   0.080318   2.441819  14.775739   # O_3
 362 1 3   0.188039   0.000000   3.817568  15.162629   # C_3
 363 1 3  -0.218875   0.000000   4.243582  16.456611   # C_3
 364 1 3   0.028610   0.000000   5.537564  16.882832   # C_3
 365 1 3   0.026708   0.000000   6.533667  15.887764   # C_3
 366 1 2  -0.095303  20.665209   7.935084  16.219384   # O_3
 367 1 4   0.043406   0.000000   5.769615  17.998791   # H_
 368 1 2  -0.722908   0.000000   3.528590  18.727652   # O_3
 369 1 3   0.561957   0.000000   3.179581  17.520612   # C_3
 370 1 2  -0.780861   0.000000   1.972541  17.171603   # O_3
 371 1 4   0.149041   1.060481   2.259242  14.767458   # H_
 372 1 4   0.171167  19.731828   8.135878  16.479588   # H_
 373 1 3   0.551473  10.350200  17.520819  13.529781   # C_3
 374 1 2  -0.672479  10.350200  18.727859  13.878790   # O_3
 375 1 2  -0.724014  10.350200  17.171810  12.322741   # O_3
 376 1 3  -0.173188  10.350200  16.456818  14.593782   # C_3
 377 1 3  -0.011303  10.350200  15.162836  14.166733   # C_3
 378 1 4   0.065581  10.350200  14.930785  13.050774   # H_
 379 1 2  -0.262982  10.432174  12.793261  14.766216   # O_3
 380 1 3   0.177981  10.350200  14.167768  15.162629   # C_3
 381 1 3  -0.166201  10.350200  14.593782  16.456611   # C_3
 382 1 3  -0.006284  10.350200  15.887764  16.882832   # C_3
 383 1 3   0.195226  10.350200  16.883867  15.887764   # C_3
 384 1 2  -0.229773  10.380630  18.261893  16.253126   # O_3
 385 1 4   0.099560  10.350200  16.119815  17.998791   # H_
 386 1 2  -0.669932  10.350200  13.878790  18.727652   # O_3
 387 1 3   0.547334  10.350200  13.529781  17.520612   # C_3
 388 1 2  -0.711657  10.350200  12.322741  17.171603   # O_3
 389 1 4   0.145467  11.413580  12.635524  14.690246   # H_
 390 1 4   0.190002  11.323533  18.558116  16.178191   # H_
 391 1 3   0.557448  10.350200   7.170619   3.179581   # C_3
 392 1 2  -0.730714  10.350200   8.377659   3.528590   # O_3
 393 1 2  -0.751979  10.350200   6.821610   1.972541   # O_3
 394 1 3  -0.190700  10.350200   6.106618   4.243582   # C_3
 395 1 3  -0.016003  10.350200   4.812636   3.816533   # C_3
 396 1 4   0.046940  10.350200   4.580585   2.700574   # H_
 397 1 2  -0.285202  10.430932   2.441819   4.422226   # O_3
 398 1 3   0.174818  10.350200   3.817568   4.812636   # C_3
 399 1 3  -0.181542  10.350200   4.243582   6.106618   # C_3
 400 1 3  -0.019392  10.350200   5.537564   6.532632   # C_3
 401 1 3   0.183285  10.350200   6.533667   5.537564   # C_3
 402 1 2  -0.280287  10.380216   7.906518   5.913897   # O_3
 403 1 4   0.056094  10.350200   5.769615   7.648591   # H_
 404 1 2  -0.660249  10.350200   3.528590   8.377452   # O_3
 405 1 3   0.561397  10.350200   3.179581   7.170619   # C_3
 406 1 2  -0.643156  10.350200   1.972541   6.821610   # O_3
 407 1 4   0.140412  11.412545   2.271455   4.384138   # H_
 408 1 4   0.157848  11.314632   8.216817   5.818054   # H_
 409 1 3   0.526479   0.000000  17.520819  17.520819   # C_3
 410 1 2  -0.725139   0.000000  18.727859  17.171810   # O_3
 411 1 2  -0.701000   0.000000  17.171810  18.727859   # O_3
 412 1 3  -0.142487   0.000000  16.456818  16.456818   # C_3
 413 1 3  -0.001021   0.000000  15.162836  16.883867   # C_3
 414 1 4   0.068872   0.000000  14.930785  17.999826   # H_
 415 1 2  -0.099392  20.582615  12.751239  16.211725   # O_3
 416 1 3   0.056933   0.000000  14.167768  15.887971   # C_3
 417 1 3  -0.180619   0.000000  14.593782  14.593989   # C_3
 418 1 3   0.009264   0.000000  15.887764  14.167768   # C_3
 419 1 3   0.042730   0.000000  16.883867  15.162836   # C_3
 420 1 2  -0.073698  20.669970  18.264998  14.803477   # O_3
 421 1 4   0.030677   0.000000  16.119815  13.051809   # H_
 422 1 2  -0.795637   0.000000  13.878790  12.322948   # O_3
 423 1 3   0.543737   0.000000  13.529781  13.529988   # C_3
 424 1 2  -0.797591   0.000000  12.322741  13.878997   # O_3
 425 1 4   0.176051  19.645508  12.521465  15.965183   # H_
 426 1 4   0.196673  19.723341  18.552112  14.864750   # H_
 427 1 3   0.566042   0.000000   7.170619   7.170619   # C_3
 428 1 2  -0.689308   0.000000   8.377659   6.821610   # O_3
 429 1 2  -0.691912   0.000000   6.821610   8.377659   # O_3
 430 1 3  -0.220630   0.000000   6.106618   6.106618   # C_3
 431 1 3   0.023185   0.000000   4.812636   6.533667   # C_3
 432 1 4   0.022556   0.000000   4.580585   7.649626   # H_
 433 1 2  -0.109954  20.580959   2.403937   5.913897   # O_3
 434 1 3   0.020458   0.000000   3.817568   5.537564   # C_3
 435 1 3  -0.144369   0.000000   4.243582   4.243582   # C_3
 436 1 3  -0.059364   0.000000   5.537564   3.817568   # C_3
 437 1 3   0.187193   0.000000   6.533667   4.812636   # C_3
 438 1 2  -0.317052   0.032707   7.932393   4.497162   # O_3
 439 1 4   0.032097   0.000000   5.769615   2.701609   # H_
 440 1 2  -0.710701   0.000000   3.528590   1.972748   # O_3
 441 1 3   0.541222   0.000000   3.179581   3.179581   # C_3
 442 1 2  -0.700490   0.000000   1.972541   3.528590   # O_3
 443 1 4   0.154358  19.605556   2.295467   6.097510   # H_
 444 1 4   0.152735   0.971263   8.195702   4.343772   # H_
 445 1 3   0.550089  10.350200  17.520819   7.170619   # C_3
 446 1 2  -0.570798  10.350200  18.727859   6.821610   # O_3
 447 1 2  -0.646469  10.350200  17.171810   8.377659   # O_3
 448 1 3  -0.158623  10.350200  16.456818   6.106618   # C_3
 449 1 3  -0.015437  10.350200  15.162836   6.533667   # C_3
 450 1 4   0.065542  10.350200  14.930785   7.649626   # H_
 451 1 2  -0.259713  10.231794  12.751239   5.906652   # O_3
 452 1 3   0.174960  10.350200  14.167768   5.537564   # C_3
 453 1 3  -0.178375  10.350200  14.593782   4.243582   # C_3
 454 1 3  -0.003863  10.350200  15.887764   3.817568   # C_3
 455 1 3   0.169351  10.350200  16.883867   4.812636   # C_3
 456 1 2  -0.236248  10.388703  18.291080   4.395316   # O_3
 457 1 4   0.058236  10.350200  16.119815   2.701609   # H_
 458 1 2  -0.663092  10.350200  13.878790   1.972748   # O_3
 459 1 3   0.566566  10.350200  13.529781   3.179581   # C_3
 460 1 2  -0.641173  10.350200  12.322741   3.528590   # O_3
 461 1 4   0.149207   9.245420  12.638836   6.010775   # H_
 462 1 4   0.179280  11.359137  18.433913   4.256209   # H_
 463 1 3   0.555753  10.350200   7.170619  17.520819   # C_3
 464 1 2  -0.632297  10.350200   8.377659  17.171810   # O_3
 465 1 2  -0.600028  10.350200   6.821610  18.727859   # O_3
 466 1 3  -0.162516  10.350200   6.106618  16.456818   # C_3
 467 1 3  -0.012442  10.350200   4.812636  16.883867   # C_3
 468 1 4   0.085184  10.350200   4.580585  17.999826   # H_
 469 1 2  -0.270722  10.229517   2.405179  16.203238   # O_3
 470 1 3   0.185196  10.350200   3.817568  15.887971   # C_3
 471 1 3  -0.184654  10.350200   4.243582  14.593989   # C_3
 472 1 3  -0.009924  10.350200   5.537564  14.167768   # C_3
 473 1 3   0.176558  10.350200   6.533667  15.162836   # C_3
 474 1 2  -0.263971  10.314595   7.935498  14.828111   # O_3
 475 1 4   0.069200  10.350200   5.769615  13.051809   # H_
 476 1 2  -0.734460  10.350200   3.528590  12.322948   # O_3
 477 1 3   0.560548  10.350200   3.179581  13.529988   # C_3
 478 1 2  -0.749649  10.350200   1.972541  13.878997   # O_3
 479 1 4   0.157246   9.310833   2.138351  15.939929   # H_
 480 1 4   0.153042   9.381214   8.125321  14.557970   # H_
