 (written by mofun)

528 atoms
0 bonds
0 angles
0 dihedrals
0 impropers

5 atom types
   0.000000  20.700400 xlo xhi
   0.000000  20.700400 ylo yhi
   0.000000  20.700400 zlo zhi

Masses

 1 91.2240   # Zr3+4
 2 15.9994   # O_3
 3 12.0107   # C_3
 4 14.0067   # N_3
 5 1.0079   # H_

Pair Coeffs

 1   0.069000   2.783168 # Zr3+4
 2   0.060000   3.118146 # O_3
 3   0.105000   3.430851 # C_3
 4   0.069000   3.260689 # N_3
 5   0.044000   2.571134 # H_

Atoms

 1 1 1   3.167600   2.481771   0.000000   0.000000   # Zr3+4
 2 1 1   3.190980   2.481771  10.350200  10.350200   # Zr3+4
 3 1 1   3.176540  12.831971   0.000000  10.350200   # Zr3+4
 4 1 1   3.180620  12.831971  10.350200   0.000000   # Zr3+4
 5 1 1   3.165430  18.218629   0.000000   0.000000   # Zr3+4
 6 1 1   3.191760  18.218629  10.350200  10.350200   # Zr3+4
 7 1 1   3.179070   7.868429   0.000000  10.350200   # Zr3+4
 8 1 1   3.177560   7.868429  10.350200   0.000000   # Zr3+4
 9 1 1   3.167640   0.000000   2.481771   0.000000   # Zr3+4
 10 1 1   3.144810   0.000000  12.831971  10.350200   # Zr3+4
 11 1 1   3.190990  10.350200   2.481771  10.350200   # Zr3+4
 12 1 1   3.180500  10.350200  12.831971   0.000000   # Zr3+4
 13 1 1   3.165420   0.000000  18.218629   0.000000   # Zr3+4
 14 1 1   3.210600   0.000000   7.868429  10.350200   # Zr3+4
 15 1 1   3.191750  10.350200  18.218629  10.350200   # Zr3+4
 16 1 1   3.177910  10.350200   7.868429   0.000000   # Zr3+4
 17 1 1   3.197600   0.000000   0.000000   2.481771   # Zr3+4
 18 1 1   3.176530   0.000000  10.350200  12.831971   # Zr3+4
 19 1 1   3.144610  10.350200   0.000000  12.831971   # Zr3+4
 20 1 1   3.191530  10.350200  10.350200   2.481771   # Zr3+4
 21 1 1   3.133830   0.000000   0.000000  18.218629   # Zr3+4
 22 1 1   3.179160   0.000000  10.350200   7.868429   # Zr3+4
 23 1 1   3.210600  10.350200   0.000000   7.868429   # Zr3+4
 24 1 1   3.192310  10.350200  10.350200  18.218629   # Zr3+4
 25 1 2  -1.313630   1.161292   9.188908   9.188908   # O_3
 26 1 2  -1.211940  11.511492  19.539108   9.188908   # O_3
 27 1 2  -1.320630  11.511492   9.188908  19.539108   # O_3
 28 1 2  -1.313670   9.188908   1.161292   9.188908   # O_3
 29 1 2  -1.320980   9.188908  11.511492  19.539108   # O_3
 30 1 2  -1.167080  19.539108  19.539108   1.161292   # O_3
 31 1 2  -1.212270  19.539108   9.188908  11.511492   # O_3
 32 1 2  -1.368290   1.161292   1.161292   1.161292   # O_3
 33 1 2  -1.415040  11.511492  11.511492   1.161292   # O_3
 34 1 2  -1.351550  19.539108   1.161292   1.161292   # O_3
 35 1 2  -1.434800  19.539108  11.511492  11.511492   # O_3
 36 1 2  -1.536280   9.188908   1.161292  11.511492   # O_3
 37 1 2  -1.424530   9.188908  11.511492   1.161292   # O_3
 38 1 2  -1.351450   1.161292  19.539108   1.161292   # O_3
 39 1 2  -1.408930   1.161292   9.188908  11.511492   # O_3
 40 1 2  -1.434690  11.511492  19.539108  11.511492   # O_3
 41 1 2  -1.424330  11.511492   9.188908   1.161292   # O_3
 42 1 2  -1.282710  19.539108  19.539108  19.539108   # O_3
 43 1 2  -1.296640  19.539108   9.188908   9.188908   # O_3
 44 1 2  -1.296580   9.188908  19.539108   9.188908   # O_3
 45 1 2  -1.329040   9.188908   9.188908  19.539108   # O_3
 46 1 2  -1.480830   1.161292   1.161292  19.539108   # O_3
 47 1 2  -1.536030   1.161292  11.511492   9.188908   # O_3
 48 1 2  -1.408890  11.511492   1.161292   9.188908   # O_3
 49 1 3   0.536243   3.179581   0.000000  17.520819   # C_3
 50 1 2  -0.710110   3.528590   0.000000  18.727859   # O_3
 51 1 2  -0.788966   1.972541   0.000000  17.171810   # O_3
 52 1 3  -0.147141   4.243582   0.000000  16.456818   # C_3
 53 1 3   0.013738   3.816533   0.000000  15.162836   # C_3
 54 1 4   0.025469   2.358811  20.691706  14.754831   # N_3
 55 1 5   0.029537   4.580585   0.000000  13.051809   # H_
 56 1 3   0.011884   4.812636   0.000000  14.167768   # C_3
 57 1 3  -0.161013   6.106618   0.000000  14.593782   # C_3
 58 1 3   0.028298   6.532632   0.000000  15.887764   # C_3
 59 1 3   0.017554   5.537564   0.000000  16.883867   # C_3
 60 1 5   0.068981   5.769615   0.000000  17.999826   # H_
 61 1 4   0.089645   7.988698  20.686324  16.299081   # N_3
 62 1 2  -0.787093   8.377452   0.000000  13.878790   # O_3
 63 1 3   0.540559   7.170619   0.000000  13.529781   # C_3
 64 1 2  -0.773247   6.821610   0.000000  12.322741   # O_3
 65 1 4  -0.002933   2.146424  20.601038  13.541581   # N_3
 66 1 4   0.004990   1.956602  20.519893  12.357311   # N_3
 67 1 4  -0.101014   8.181005   0.019872  17.517713   # N_3
 68 1 4  -0.035530   8.335016   0.045955  18.709022   # N_3
 69 1 3   0.559063   3.179581  10.350200   7.170619   # C_3
 70 1 2  -0.648162   3.528590  10.350200   8.377659   # O_3
 71 1 2  -0.649202   1.972541  10.350200   6.821610   # O_3
 72 1 3  -0.155775   4.243582  10.350200   6.106618   # C_3
 73 1 3   0.114014   3.816533  10.350200   4.812636   # C_3
 74 1 4  -0.073928   2.363986  10.211300   4.418293   # N_3
 75 1 5   0.054824   4.580585  10.350200   2.701609   # H_
 76 1 3   0.011204   4.812636  10.350200   3.817568   # C_3
 77 1 3  -0.165358   6.106618  10.350200   4.243582   # C_3
 78 1 3   0.119595   6.532632  10.350200   5.537564   # C_3
 79 1 3   0.009189   5.537564  10.350200   6.533667   # C_3
 80 1 5   0.073291   5.769615  10.350200   7.649626   # H_
 81 1 4  -0.066541   7.987870  10.364276   5.957368   # N_3
 82 1 2  -0.725099   8.377452  10.350200   3.528590   # O_3
 83 1 3   0.552326   7.170619  10.350200   3.179581   # C_3
 84 1 2  -0.749080   6.821610  10.350200   1.972541   # O_3
 85 1 4  -0.037576   2.147045  10.283338   3.207941   # N_3
 86 1 4  -0.077109   1.962812  10.368416   2.024499   # N_3
 87 1 4  -0.027108   8.166722  10.378974   7.180348   # N_3
 88 1 4  -0.027086   8.300239  10.382493   8.375589   # N_3
 89 1 3   0.538407  13.529781   0.000000   7.170619   # C_3
 90 1 2  -0.690892  13.878790   0.000000   8.377659   # O_3
 91 1 2  -0.689588  12.322741   0.000000   6.821610   # O_3
 92 1 3  -0.137072  14.593782   0.000000   6.106618   # C_3
 93 1 3   0.008286  14.166733   0.000000   4.812636   # C_3
 94 1 4   0.025239  12.711702  20.614493   4.414153   # N_3
 95 1 5   0.022578  14.930785   0.000000   2.701609   # H_
 96 1 3   0.028207  15.162629   0.000000   3.817568   # C_3
 97 1 3  -0.178719  16.456611   0.000000   4.243582   # C_3
 98 1 3   0.123801  16.882832   0.000000   5.537564   # C_3
 99 1 3  -0.013741  15.887764   0.000000   6.533667   # C_3
 100 1 5   0.060756  16.119815   0.000000   7.649626   # H_
 101 1 4  -0.058527  18.336828   0.045334   5.965441   # N_3
 102 1 2  -0.617156  18.727652   0.000000   3.528590   # O_3
 103 1 3   0.554848  17.520612   0.000000   3.179581   # C_3
 104 1 2  -0.704680  17.171603   0.000000   1.972541   # O_3
 105 1 4   0.070322  12.507389  20.669349   3.200489   # N_3
 106 1 4  -0.154459  12.340336   0.035812   2.013321   # N_3
 107 1 4  -0.026415  18.502432   0.051751   7.192354   # N_3
 108 1 4  -0.048044  18.616077   0.041608   8.390700   # N_3
 109 1 3   0.540847  13.529781  10.350200  17.520819   # C_3
 110 1 2  -0.664761  13.878790  10.350200  18.727859   # O_3
 111 1 2  -0.709782  12.322741  10.350200  17.171810   # O_3
 112 1 3  -0.142192  14.593782  10.350200  16.456818   # C_3
 113 1 3   0.118787  14.166733  10.350200  15.162836   # C_3
 114 1 4  -0.063967  12.711081  10.253943  14.772840   # N_3
 115 1 5   0.074265  14.930785  10.350200  13.051809   # H_
 116 1 3   0.013667  15.162629  10.350200  14.167768   # C_3
 117 1 3  -0.144947  16.456611  10.350200  14.593782   # C_3
 118 1 3   0.135338  16.882832  10.350200  15.887764   # C_3
 119 1 3   0.013776  15.887764  10.350200  16.883867   # C_3
 120 1 5   0.101589  16.119815  10.350200  17.999826   # H_
 121 1 4  -0.035968  18.334965  10.338815  16.329718   # N_3
 122 1 2  -0.580195  18.727652  10.350200  13.878790   # O_3
 123 1 3   0.551749  17.520612  10.350200  13.529781   # C_3
 124 1 2  -0.640634  17.171603  10.350200  12.322741   # O_3
 125 1 4  -0.026440  12.494140  10.329293  13.564765   # N_3
 126 1 4  -0.026297  12.311563  10.414785  12.381944   # N_3
 127 1 4  -0.004141  18.499947  10.436107  17.556009   # N_3
 128 1 4   0.025776  18.621459  10.523462  18.751664   # N_3
 129 1 3   0.523297  17.520819   0.000000  17.520819   # C_3
 130 1 2  -0.710496  17.171810   0.000000  18.727859   # O_3
 131 1 2  -0.718969  18.727859   0.000000  17.171810   # O_3
 132 1 3  -0.120868  16.456818   0.000000  16.456818   # C_3
 133 1 3   0.015973  16.883867   0.000000  15.162836   # C_3
 134 1 4   0.065076  18.327513  20.540593  14.780500   # N_3
 135 1 5   0.040528  16.119815   0.000000  13.051809   # H_
 136 1 3   0.034716  15.887971   0.000000  14.167768   # C_3
 137 1 3  -0.190641  14.593989   0.000000  14.593782   # C_3
 138 1 3   0.119829  14.167768   0.000000  15.887764   # C_3
 139 1 3  -0.018033  15.162836   0.000000  16.883867   # C_3
 140 1 5   0.066575  14.930785   0.000000  17.999826   # H_
 141 1 4  -0.089012  12.722466   0.152355  16.267409   # N_3
 142 1 2  -0.781947  12.322948   0.000000  13.878790   # O_3
 143 1 3   0.555822  13.529988   0.000000  13.529781   # C_3
 144 1 2  -0.779873  13.878997   0.000000  12.322741   # O_3
 145 1 4   0.021500  18.532240  19.516130  14.151207   # N_3
 146 1 4   0.023828  18.689770  18.508228  13.537441   # N_3
 147 1 4  -0.032751  12.513185   1.168331  16.908294   # N_3
 148 1 4  -0.035326  12.350480   2.166711  17.535516   # N_3
 149 1 3   0.541440  17.520819  10.350200   7.170619   # C_3
 150 1 2  -0.717539  17.171810  10.350200   8.377659   # O_3
 151 1 2  -0.657221  18.727859  10.350200   6.821610   # O_3
 152 1 3  -0.144848  16.456818  10.350200   6.106618   # C_3
 153 1 3   0.127021  16.883867  10.350200   4.812636   # C_3
 154 1 4  -0.039057  18.325443  10.193705   4.428023   # N_3
 155 1 5   0.073966  16.119815  10.350200   2.701609   # H_
 156 1 3   0.016946  15.887971  10.350200   3.817568   # C_3
 157 1 3  -0.155895  14.593989  10.350200   4.243582   # C_3
 158 1 3   0.126229  14.167768  10.350200   5.537564   # C_3
 159 1 3   0.009487  15.162836  10.350200   6.533667   # C_3
 160 1 5   0.077749  14.930785  10.350200   7.649626   # H_
 161 1 4  -0.063660  12.720603  10.476472   5.917209   # N_3
 162 1 2  -0.638959  12.322948  10.350200   3.528590   # O_3
 163 1 3   0.561525  13.529988  10.350200   3.179581   # C_3
 164 1 2  -0.652700  13.878997  10.350200   1.972541   # O_3
 165 1 4  -0.006625  18.522925   9.151440   3.826883   # N_3
 166 1 4  -0.006792  18.666379   8.124493   3.241890   # N_3
 167 1 4  -0.024883  12.496831  11.484582   6.564097   # N_3
 168 1 4  -0.039317  12.321085  12.476131   7.197943   # N_3
 169 1 3   0.537332   7.170619   0.000000   7.170619   # C_3
 170 1 2  -0.691844   6.821610   0.000000   8.377659   # O_3
 171 1 2  -0.689811   8.377659   0.000000   6.821610   # O_3
 172 1 3  -0.137168   6.106618   0.000000   6.106618   # C_3
 173 1 3   0.006523   6.533667   0.000000   4.812636   # C_3
 174 1 4   0.041963   7.980004  20.589239   4.428437   # N_3
 175 1 5   0.029719   5.769615   0.000000   2.701609   # H_
 176 1 3   0.033341   5.537564   0.000000   3.817568   # C_3
 177 1 3  -0.189355   4.243582   0.000000   4.243582   # C_3
 178 1 3   0.114657   3.817568   0.000000   5.537564   # C_3
 179 1 3  -0.019106   4.812636   0.000000   6.533667   # C_3
 180 1 5   0.049408   4.580585   0.000000   7.649626   # H_
 181 1 4  -0.100215   2.373715   0.123788   5.921349   # N_3
 182 1 2  -0.685226   1.972748   0.000000   3.528590   # O_3
 183 1 3   0.564176   3.179581   0.000000   3.179581   # C_3
 184 1 2  -0.702974   3.528590   0.000000   1.972541   # O_3
 185 1 4  -0.001538   8.209572  19.577196   3.789829   # N_3
 186 1 4  -0.031487   8.389251  18.579437   3.166333   # N_3
 187 1 4  -0.041230   2.160708   1.156531   6.531183   # N_3
 188 1 4  -0.066295   2.005662   2.174577   7.127562   # N_3
 189 1 3   0.551292   7.170619  10.350200  17.520819   # C_3
 190 1 2  -0.597783   6.821610  10.350200  18.727859   # O_3
 191 1 2  -0.632720   8.377659  10.350200  17.171810   # O_3
 192 1 3  -0.143209   6.106618  10.350200  16.456818   # C_3
 193 1 3   0.120924   6.533667  10.350200  15.162836   # C_3
 194 1 4  -0.062679   7.978348  10.209851  14.779258   # N_3
 195 1 5   0.075420   5.769615  10.350200  13.051809   # H_
 196 1 3   0.014696   5.537564  10.350200  14.167768   # C_3
 197 1 3  -0.161135   4.243582  10.350200  14.593782   # C_3
 198 1 3   0.126824   3.817568  10.350200  15.887764   # C_3
 199 1 3   0.011661   4.812636  10.350200  16.883867   # C_3
 200 1 5   0.087254   4.580585  10.350200  17.999826   # H_
 201 1 4  -0.071489   2.372266  10.477093  16.270928   # N_3
 202 1 2  -0.733738   1.972748  10.350200  13.878790   # O_3
 203 1 3   0.552767   3.179581  10.350200  13.529781   # C_3
 204 1 2  -0.731977   3.528590  10.350200  12.322741   # O_3
 205 1 4  -0.024610   8.192390   9.189529  14.147067   # N_3
 206 1 4  -0.039995   8.358201   8.184731  13.530609   # N_3
 207 1 4  -0.032550   2.154705  11.499693  16.897323   # N_3
 208 1 4  -0.046196   1.990136  12.507803  17.507984   # N_3
 209 1 3   0.528718  17.520819   3.179581   0.000000   # C_3
 210 1 2  -0.701930  18.727859   3.528590   0.000000   # O_3
 211 1 2  -0.772965  17.171810   1.972541   0.000000   # O_3
 212 1 3  -0.129586  16.456818   4.243582   0.000000   # C_3
 213 1 3   0.010135  15.162836   3.816533   0.000000   # C_3
 214 1 4   0.021416  14.752347   2.360881  20.634366   # N_3
 215 1 5   0.029526  13.051809   4.580585   0.000000   # H_
 216 1 3   0.029331  14.167768   4.812636   0.000000   # C_3
 217 1 3  -0.185978  14.593782   6.106618   0.000000   # C_3
 218 1 3   0.118648  15.887764   6.532632   0.000000   # C_3
 219 1 3  -0.013173  16.883867   5.537564   0.000000   # C_3
 220 1 5   0.077500  17.999826   5.769615   0.000000   # H_
 221 1 4  -0.074273  16.291836   7.989940   0.060031   # N_3
 222 1 2  -0.683539  13.878790   8.377452   0.000000   # O_3
 223 1 3   0.560425  13.529781   7.170619   0.000000   # C_3
 224 1 2  -0.695287  12.322741   6.821610   0.000000   # O_3
 225 1 4  -0.000280  13.533301   2.164434  20.654031   # N_3
 226 1 4   0.016211  12.342199   2.003799  20.684461   # N_3
 227 1 4  -0.096988  17.506949   8.200463   0.028567   # N_3
 228 1 4   0.112076  18.693703   8.381178  20.687152   # N_3
 229 1 3   0.544103  17.520819  13.529781  10.350200   # C_3
 230 1 2  -0.672485  18.727859  13.878790  10.350200   # O_3
 231 1 2  -0.710604  17.171810  12.322741  10.350200   # O_3
 232 1 3  -0.142228  16.456818  14.593782  10.350200   # C_3
 233 1 3   0.119465  15.162836  14.166733  10.350200   # C_3
 234 1 4  -0.064445  14.750691  12.712116  10.270503   # N_3
 235 1 5   0.074640  13.051809  14.930785  10.350200   # H_
 236 1 3   0.013899  14.167768  15.162629  10.350200   # C_3
 237 1 3  -0.144340  14.593782  16.456611  10.350200   # C_3
 238 1 3   0.136442  15.887764  16.882832  10.350200   # C_3
 239 1 3   0.015194  16.883867  15.887764  10.350200   # C_3
 240 1 5   0.103533  17.999826  16.119815  10.350200   # H_
 241 1 4  -0.033178  16.320609  18.336621  10.339436   # N_3
 242 1 2  -0.578847  13.878790  18.727652  10.350200   # O_3
 243 1 3   0.551847  13.529781  17.520612  10.350200   # C_3
 244 1 2  -0.640375  12.322741  17.171603  10.350200   # O_3
 245 1 4  -0.026308  13.530609  12.521672  10.303831   # N_3
 246 1 4  -0.026437  12.338473  12.372422  10.350614   # N_3
 247 1 4   0.001450  17.545452  18.512989  10.410231   # N_3
 248 1 4   0.034772  18.740072  18.650025  10.472746   # N_3
 249 1 3   0.559170   7.170619   3.179581  10.350200   # C_3
 250 1 2  -0.648333   8.377659   3.528590  10.350200   # O_3
 251 1 2  -0.649930   6.821610   1.972541  10.350200   # O_3
 252 1 3  -0.155833   6.106618   4.243582  10.350200   # C_3
 253 1 3   0.114211   4.812636   3.816533  10.350200   # C_3
 254 1 4  -0.075190   4.448102   2.367298  10.174040   # N_3
 255 1 5   0.053695   2.701609   4.580585  10.350200   # H_
 256 1 3   0.011272   3.817568   4.812636  10.350200   # C_3
 257 1 3  -0.160722   4.243582   6.106618  10.350200   # C_3
 258 1 3   0.120208   5.537564   6.532632  10.350200   # C_3
 259 1 3   0.009476   6.533667   5.537564  10.350200   # C_3
 260 1 5   0.073235   7.649626   5.769615  10.350200   # H_
 261 1 4  -0.065904   5.954470   7.988698  10.365311   # N_3
 262 1 2  -0.641676   3.528590   8.377452  10.350200   # O_3
 263 1 3   0.558658   3.179581   7.170619  10.350200   # C_3
 264 1 2  -0.656158   1.972541   6.821610  10.350200   # O_3
 265 1 4  -0.040995   3.261348   2.119928  10.338815   # N_3
 266 1 4  -0.088163   2.097158   1.906921  10.515182   # N_3
 267 1 4  -0.026869   7.176829   8.169206  10.369244   # N_3
 268 1 4  -0.027133   8.371656   8.302723  10.361999   # N_3
 269 1 3   0.540792   7.170619  13.529781   0.000000   # C_3
 270 1 2  -0.688584   8.377659  13.878790   0.000000   # O_3
 271 1 2  -0.696848   6.821610  12.322741   0.000000   # O_3
 272 1 3  -0.136373   6.106618  14.593782   0.000000   # C_3
 273 1 3   0.009810   4.812636  14.166733   0.000000   # C_3
 274 1 4   0.024948   4.409392  12.712116  20.599796   # N_3
 275 1 5   0.016720   2.701609  14.930785   0.000000   # H_
 276 1 3   0.026606   3.817568  15.162629   0.000000   # C_3
 277 1 3  -0.181513   4.243582  16.456611   0.000000   # C_3
 278 1 3   0.118176   5.537564  16.882832   0.000000   # C_3
 279 1 3  -0.020576   6.533667  15.887764   0.000000   # C_3
 280 1 5   0.047049   7.649626  16.119815   0.000000   # H_
 281 1 4  -0.106276   5.946811  18.339105   0.053614   # N_3
 282 1 2  -0.699893   3.528590  18.727652   0.000000   # O_3
 283 1 3   0.548998   3.179581  17.520612   0.000000   # C_3
 284 1 2  -0.779661   1.972541  17.171603   0.000000   # O_3
 285 1 4   0.002911   3.193865  12.502214  20.626293   # N_3
 286 1 4   0.004093   2.006490  12.320878  20.663553   # N_3
 287 1 4   0.086112   7.165650  18.522097  20.698123   # N_3
 288 1 4   0.050082   8.357994  18.652509  20.626914   # N_3
 289 1 3   0.529616  17.520819  17.520819   0.000000   # C_3
 290 1 2  -0.628079  18.727859  17.171810   0.000000   # O_3
 291 1 2  -0.628098  17.171810  18.727859   0.000000   # O_3
 292 1 3  -0.116195  16.456818  16.456818   0.000000   # C_3
 293 1 3   0.024328  15.162836  16.883867   0.000000   # C_3
 294 1 4   0.062686  14.782363  18.330411  20.569159   # N_3
 295 1 5   0.042800  13.051809  16.119815   0.000000   # H_
 296 1 3   0.034573  14.167768  15.887971   0.000000   # C_3
 297 1 3  -0.187026  14.593782  14.593989   0.000000   # C_3
 298 1 3   0.120953  15.887764  14.167768   0.000000   # C_3
 299 1 3  -0.014987  16.883867  15.162836   0.000000   # C_3
 300 1 5   0.070288  17.999826  14.930785   0.000000   # H_
 301 1 4  -0.086376  16.272377  12.723915   0.143247   # N_3
 302 1 2  -0.759562  13.878790  12.322948   0.000000   # O_3
 303 1 3   0.552792  13.529781  13.529988   0.000000   # C_3
 304 1 2  -0.768494  12.322741  13.878997   0.000000   # O_3
 305 1 4   0.021165  14.131956  18.554390  19.562913   # N_3
 306 1 4   0.024368  13.495626  18.732827  18.573020   # N_3
 307 1 4  -0.027005  16.882211  12.515669   1.178267   # N_3
 308 1 4  -0.027147  17.475485  12.361865   2.199003   # N_3
 309 1 3   0.547709  17.520819   7.170619  10.350200   # C_3
 310 1 2  -0.584095  18.727859   6.821610  10.350200   # O_3
 311 1 2  -0.632365  17.171810   8.377659  10.350200   # O_3
 312 1 3  -0.141347  16.456818   6.106618  10.350200   # C_3
 313 1 3   0.120762  15.162836   6.533667  10.350200   # C_3
 314 1 4  -0.062552  14.780086   7.978969  10.218545   # N_3
 315 1 5   0.075494  13.051809   5.769615  10.350200   # H_
 316 1 3   0.015269  14.167768   5.537564  10.350200   # C_3
 317 1 3  -0.161059  14.593782   4.243582  10.350200   # C_3
 318 1 3   0.127927  15.887764   3.817568  10.350200   # C_3
 319 1 3   0.011447  16.883867   4.812636  10.350200   # C_3
 320 1 5   0.088966  17.999826   4.580585  10.350200   # H_
 321 1 4  -0.067870  16.268858   2.368747  10.450390   # N_3
 322 1 2  -0.732783  13.878790   1.972748  10.350200   # O_3
 323 1 3   0.552873  13.529781   3.179581  10.350200   # C_3
 324 1 2  -0.731788  12.322741   3.528590  10.350200   # O_3
 325 1 4  -0.024401  14.144583   8.197151   9.201535   # N_3
 326 1 4  -0.039474  13.523985   8.367102   8.200256   # N_3
 327 1 4  -0.030086  16.924233   2.128001  11.448977   # N_3
 328 1 4  -0.044259  17.565324   1.936108  12.432660   # N_3
 329 1 3   0.540975   7.170619  17.520819  10.350200   # C_3
 330 1 2  -0.717917   8.377659  17.171810  10.350200   # O_3
 331 1 2  -0.658425   6.821610  18.727859  10.350200   # O_3
 332 1 3  -0.145361   6.106618  16.456818  10.350200   # C_3
 333 1 3   0.125061   4.812636  16.883867  10.350200   # C_3
 334 1 4  -0.042495   4.428023  18.327306  10.206539   # N_3
 335 1 5   0.072274   2.701609  16.119815  10.350200   # H_
 336 1 3   0.016246   3.817568  15.887971  10.350200   # C_3
 337 1 3  -0.161435   4.243582  14.593989  10.350200   # C_3
 338 1 3   0.125676   5.537564  14.167768  10.350200   # C_3
 339 1 3   0.008552   6.533667  15.162836  10.350200   # C_3
 340 1 5   0.077570   7.649626  14.930785  10.350200   # H_
 341 1 4  -0.064241   5.917002  12.724536  10.517252   # N_3
 342 1 2  -0.724186   3.528590  12.322948  10.350200   # O_3
 343 1 3   0.555600   3.179581  13.529988  10.350200   # C_3
 344 1 2  -0.749074   1.972541  13.878997  10.350200   # O_3
 345 1 4  -0.008417   3.813014  18.535552   9.174831   # N_3
 346 1 4  -0.008082   3.214358  18.691219   8.157821   # N_3
 347 1 4  -0.027656   6.546501  12.526847  11.542543   # N_3
 348 1 4  -0.042149   7.162545  12.376355  12.550239   # N_3
 349 1 3   0.532544   7.170619   7.170619   0.000000   # C_3
 350 1 2  -0.773303   8.377659   6.821610   0.000000   # O_3
 351 1 2  -0.780379   6.821610   8.377659   0.000000   # O_3
 352 1 3  -0.143121   6.106618   6.106618   0.000000   # C_3
 353 1 3   0.012886   4.812636   6.533667   0.000000   # C_3
 354 1 4   0.034274   4.428851   7.981660  20.623809   # N_3
 355 1 5   0.033507   2.701609   5.769615   0.000000   # H_
 356 1 3   0.032103   3.817568   5.537564   0.000000   # C_3
 357 1 3  -0.188051   4.243582   4.243582   0.000000   # C_3
 358 1 3   0.114889   5.537564   3.817568   0.000000   # C_3
 359 1 3  -0.017663   6.533667   4.812636   0.000000   # C_3
 360 1 5   0.050906   7.649626   4.580585   0.000000   # H_
 361 1 4  -0.096546   5.917209   2.373922   0.158151   # N_3
 362 1 2  -0.691836   3.528590   1.972748   0.000000   # O_3
 363 1 3   0.567215   3.179581   3.179581   0.000000   # C_3
 364 1 2  -0.699880   1.972541   3.528590   0.000000   # O_3
 365 1 4  -0.003031   3.784033   8.232135  19.621495   # N_3
 366 1 4  -0.031329   3.154948   8.429617  18.631188   # N_3
 367 1 4  -0.040929   6.541947   2.173128   1.185305   # N_3
 368 1 4  -0.066081   7.154058   2.021808   2.194863   # N_3
 369 1 3   0.533950   0.000000  17.520819   3.179581   # C_3
 370 1 2  -0.618865   0.000000  18.727859   3.528590   # O_3
 371 1 2  -0.700151   0.000000  17.171810   1.972541   # O_3
 372 1 3  -0.125907   0.000000  16.456818   4.243582   # C_3
 373 1 3   0.008493   0.000000  15.162836   3.816533   # C_3
 374 1 4   0.019979  20.585306  14.770977   2.360674   # N_3
 375 1 5   0.034298   0.000000  13.051809   4.580585   # H_
 376 1 3   0.029048   0.000000  14.167768   4.812636   # C_3
 377 1 3  -0.190994   0.000000  14.593782   6.106618   # C_3
 378 1 3   0.118185   0.000000  15.887764   6.532632   # C_3
 379 1 3  -0.013418   0.000000  16.883867   5.537564   # C_3
 380 1 5   0.077560   0.000000  17.999826   5.769615   # H_
 381 1 4  -0.075127   0.057547  16.293906   7.989940   # N_3
 382 1 2  -0.775403   0.000000  13.878790   8.377452   # O_3
 383 1 3   0.554911   0.000000  13.529781   7.170619   # C_3
 384 1 2  -0.774935   0.000000  12.322741   6.821610   # O_3
 385 1 4   0.062614  20.644509  13.562074   2.135039   # N_3
 386 1 4  -0.147503   0.012006  12.379874   1.936936   # N_3
 387 1 4  -0.102441   0.011799  17.510261   8.190734   # N_3
 388 1 4   0.126330  20.655066  18.699292   8.352818   # N_3
 389 1 3   0.537853   0.000000   7.170619  13.529781   # C_3
 390 1 2  -0.692385   0.000000   8.377659  13.878790   # O_3
 391 1 2  -0.690353   0.000000   6.821610  12.322741   # O_3
 392 1 3  -0.137142   0.000000   6.106618  14.593782   # C_3
 393 1 3   0.002927   0.000000   4.812636  14.166733   # C_3
 394 1 4   0.030659  20.630847   4.384345  12.713151   # N_3
 395 1 5   0.012332   0.000000   2.701609  14.930785   # H_
 396 1 3   0.027985   0.000000   3.817568  15.162629   # C_3
 397 1 3  -0.184634   0.000000   4.243582  16.456611   # C_3
 398 1 3   0.117953   0.000000   5.537564  16.882832   # C_3
 399 1 3  -0.014235   0.000000   6.533667  15.887764   # C_3
 400 1 5   0.051328   0.000000   7.649626  16.119815   # H_
 401 1 4  -0.053450   0.085907   5.960680  18.337242   # N_3
 402 1 2  -0.706831   0.000000   3.528590  18.727652   # O_3
 403 1 3   0.552539   0.000000   3.179581  17.520612   # C_3
 404 1 2  -0.792752   0.000000   1.972541  17.171603   # O_3
 405 1 4   0.005534  20.645751   3.157432  12.540923   # N_3
 406 1 4  -0.001112  20.676181   1.960121  12.415272   # N_3
 407 1 4  -0.091003   0.044092   7.184902  18.515059   # N_3
 408 1 4   0.105892  20.686117   8.380557  18.644022   # N_3
 409 1 3   0.544308  10.350200  17.520819  13.529781   # C_3
 410 1 2  -0.676312  10.350200  18.727859  13.878790   # O_3
 411 1 2  -0.711104  10.350200  17.171810  12.322741   # O_3
 412 1 3  -0.144245  10.350200  16.456818  14.593782   # C_3
 413 1 3   0.118871  10.350200  15.162836  14.166733   # C_3
 414 1 4  -0.064670  10.312318  14.754417  12.710460   # N_3
 415 1 5   0.073843  10.350200  13.051809  14.930785   # H_
 416 1 3   0.012141  10.350200  14.167768  15.162629   # C_3
 417 1 3  -0.149064  10.350200  14.593782  16.456611   # C_3
 418 1 3   0.132982  10.350200  15.887764  16.882832   # C_3
 419 1 3   0.014106  10.350200  16.883867  15.887764   # C_3
 420 1 5   0.099833  10.350200  17.999826  16.119815   # H_
 421 1 4  -0.038196  10.337366  16.324128  18.335172   # N_3
 422 1 2  -0.660452  10.350200  13.878790  18.727652   # O_3
 423 1 3   0.542731  10.350200  13.529781  17.520612   # C_3
 424 1 2  -0.718415  10.350200  12.322741  17.171603   # O_3
 425 1 4  -0.026508  10.290376  13.536406  12.510494   # N_3
 426 1 4  -0.026388  10.278163  12.346340  12.342613   # N_3
 427 1 4  -0.005473  10.407747  17.551455  18.494151   # N_3
 428 1 4   0.032573  10.466536  18.749594  18.600965   # N_3
 429 1 3   0.549752  10.350200   7.170619   3.179581   # C_3
 430 1 2  -0.731729  10.350200   8.377659   3.528590   # O_3
 431 1 2  -0.733563  10.350200   6.821610   1.972541   # O_3
 432 1 3  -0.159794  10.350200   6.106618   4.243582   # C_3
 433 1 3   0.113689  10.350200   4.812636   3.816533   # C_3
 434 1 4  -0.075719  10.287478   4.413532   2.359846   # N_3
 435 1 5   0.055804  10.350200   2.701609   4.580585   # H_
 436 1 3   0.011320  10.350200   3.817568   4.812636   # C_3
 437 1 3  -0.160732  10.350200   4.243582   6.106618   # C_3
 438 1 3   0.120005  10.350200   5.537564   6.532632   # C_3
 439 1 3   0.008632  10.350200   6.533667   5.537564   # C_3
 440 1 5   0.072905  10.350200   7.649626   5.769615   # H_
 441 1 4  -0.065912  10.366760   5.956540   7.987870   # N_3
 442 1 2  -0.641595  10.350200   3.528590   8.377452   # O_3
 443 1 3   0.558653  10.350200   3.179581   7.170619   # C_3
 444 1 2  -0.655608  10.350200   1.972541   6.821610   # O_3
 445 1 4  -0.040446  10.306108   3.198626   2.153670   # N_3
 446 1 4  -0.075955  10.335503   2.010630   1.982063   # N_3
 447 1 4  -0.026945  10.379802   7.179727   8.164238   # N_3
 448 1 4  -0.027284  10.379802   8.375382   8.292166   # N_3
 449 1 3   0.523239   0.000000  17.520819  17.520819   # C_3
 450 1 2  -0.717593   0.000000  18.727859  17.171810   # O_3
 451 1 2  -0.712557   0.000000  17.171810  18.727859   # O_3
 452 1 3  -0.121033   0.000000  16.456818  16.456818   # C_3
 453 1 3   0.014908   0.000000  15.162836  16.883867   # C_3
 454 1 4   0.064480  20.561500  14.780707  18.328962   # N_3
 455 1 5   0.039425   0.000000  13.051809  16.119815   # H_
 456 1 3   0.034861   0.000000  14.167768  15.887971   # C_3
 457 1 3  -0.190559   0.000000  14.593782  14.593989   # C_3
 458 1 3   0.119235   0.000000  15.887764  14.167768   # C_3
 459 1 3  -0.017574   0.000000  16.883867  15.162836   # C_3
 460 1 5   0.066143   0.000000  17.999826  14.930785   # H_
 461 1 4  -0.087920   0.193963  16.268651  12.728055   # N_3
 462 1 2  -0.780974   0.000000  13.878790  12.322948   # O_3
 463 1 3   0.555524   0.000000  13.529781  13.529988   # C_3
 464 1 2  -0.780335   0.000000  12.322741  13.878997   # O_3
 465 1 4   0.021018  19.539315  14.151828  18.543625   # N_3
 466 1 4   0.021233  18.532447  13.538890  18.708401   # N_3
 467 1 4  -0.032479   1.237884  16.874138  12.548375   # N_3
 468 1 4  -0.037179   2.264210  17.464306  12.417549   # N_3
 469 1 3   0.537344   0.000000   7.170619   7.170619   # C_3
 470 1 2  -0.691416   0.000000   8.377659   6.821610   # O_3
 471 1 2  -0.689998   0.000000   6.821610   8.377659   # O_3
 472 1 3  -0.137242   0.000000   6.106618   6.106618   # C_3
 473 1 3   0.007366   0.000000   4.812636   6.533667   # C_3
 474 1 4   0.041691  20.609318   4.430714   7.981039   # N_3
 475 1 5   0.032712   0.000000   2.701609   5.769615   # H_
 476 1 3   0.033475   0.000000   3.817568   5.537564   # C_3
 477 1 3  -0.189045   0.000000   4.243582   4.243582   # C_3
 478 1 3   0.115226   0.000000   5.537564   3.817568   # C_3
 479 1 3  -0.019274   0.000000   6.533667   4.812636   # C_3
 480 1 5   0.050364   0.000000   7.649626   4.580585   # H_
 481 1 4  -0.100366   0.104537   5.920521   2.371645   # N_3
 482 1 2  -0.694142   0.000000   3.528590   1.972748   # O_3
 483 1 3   0.564218   0.000000   3.179581   3.179581   # C_3
 484 1 2  -0.693049   0.000000   1.972541   3.528590   # O_3
 485 1 4  -0.001154  19.605970   3.784033   8.222199   # N_3