 (written by mofun)

696 atoms
0 bonds
0 angles
0 dihedrals
0 impropers

5 atom types
   0.000000  20.700400 xlo xhi
   0.000000  20.700400 ylo yhi
   0.000000  20.700400 zlo zhi

Masses

 1 91.2240   # Zr3+4
 2 15.9994   # O_3
 3 12.0107   # C_3
 4 14.0067   # N_3
 5 1.0079   # H_

Pair Coeffs

 1   0.069000   2.783168 # Zr3+4
 2   0.060000   3.118146 # O_3
 3   0.105000   3.430851 # C_3
 4   0.069000   3.260689 # N_3
 5   0.044000   2.571134 # H_

Atoms

 1 1 1   3.168570   2.481771   0.000000   0.000000   # Zr3+4
 2 1 1   3.190250   2.481771  10.350200  10.350200   # Zr3+4
 3 1 1   3.176890  12.831971   0.000000  10.350200   # Zr3+4
 4 1 1   3.180740  12.831971  10.350200   0.000000   # Zr3+4
 5 1 1   3.166940  18.218629   0.000000   0.000000   # Zr3+4
 6 1 1   3.191160  18.218629  10.350200  10.350200   # Zr3+4
 7 1 1   3.179350   7.868429   0.000000  10.350200   # Zr3+4
 8 1 1   3.177930   7.868429  10.350200   0.000000   # Zr3+4
 9 1 1   3.168640   0.000000   2.481771   0.000000   # Zr3+4
 10 1 1   3.144820   0.000000  12.831971  10.350200   # Zr3+4
 11 1 1   3.190270  10.350200   2.481771  10.350200   # Zr3+4
 12 1 1   3.180640  10.350200  12.831971   0.000000   # Zr3+4
 13 1 1   3.166890   0.000000  18.218629   0.000000   # Zr3+4
 14 1 1   3.211460   0.000000   7.868429  10.350200   # Zr3+4
 15 1 1   3.191130  10.350200  18.218629  10.350200   # Zr3+4
 16 1 1   3.178310  10.350200   7.868429   0.000000   # Zr3+4
 17 1 1   3.198810   0.000000   0.000000   2.481771   # Zr3+4
 18 1 1   3.176870   0.000000  10.350200  12.831971   # Zr3+4
 19 1 1   3.144830  10.350200   0.000000  12.831971   # Zr3+4
 20 1 1   3.190840  10.350200  10.350200   2.481771   # Zr3+4
 21 1 1   3.134970   0.000000   0.000000  18.218629   # Zr3+4
 22 1 1   3.179540   0.000000  10.350200   7.868429   # Zr3+4
 23 1 1   3.211370  10.350200   0.000000   7.868429   # Zr3+4
 24 1 1   3.191750  10.350200  10.350200  18.218629   # Zr3+4
 25 1 2  -1.313210   1.161292   9.188908   9.188908   # O_3
 26 1 2  -1.220500  11.511492  19.539108   9.188908   # O_3
 27 1 2  -1.328810  11.511492   9.188908  19.539108   # O_3
 28 1 2  -1.313980   9.188908   1.161292   9.188908   # O_3
 29 1 2  -1.330670   9.188908  11.511492  19.539108   # O_3
 30 1 2  -1.179220  19.539108  19.539108   1.161292   # O_3
 31 1 2  -1.220090  19.539108   9.188908  11.511492   # O_3
 32 1 2  -1.364430   1.161292   1.161292   1.161292   # O_3
 33 1 2  -1.415910  11.511492  11.511492   1.161292   # O_3
 34 1 2  -1.354310  19.539108   1.161292   1.161292   # O_3
 35 1 2  -1.442180  19.539108  11.511492  11.511492   # O_3
 36 1 2  -1.535780   9.188908   1.161292  11.511492   # O_3
 37 1 2  -1.423220   9.188908  11.511492   1.161292   # O_3
 38 1 2  -1.353960   1.161292  19.539108   1.161292   # O_3
 39 1 2  -1.407520   1.161292   9.188908  11.511492   # O_3
 40 1 2  -1.442110  11.511492  19.539108  11.511492   # O_3
 41 1 2  -1.423490  11.511492   9.188908   1.161292   # O_3
 42 1 2  -1.301560  19.539108  19.539108  19.539108   # O_3
 43 1 2  -1.304060  19.539108   9.188908   9.188908   # O_3
 44 1 2  -1.303680   9.188908  19.539108   9.188908   # O_3
 45 1 2  -1.335870   9.188908   9.188908  19.539108   # O_3
 46 1 2  -1.485130   1.161292   1.161292  19.539108   # O_3
 47 1 2  -1.535640   1.161292  11.511492   9.188908   # O_3
 48 1 2  -1.407400  11.511492   1.161292   9.188908   # O_3
 49 1 3   0.531882   3.179581   0.000000  17.520819   # C_3
 50 1 2  -0.730063   3.528590   0.000000  18.727859   # O_3
 51 1 2  -0.797160   1.972541   0.000000  17.171810   # O_3
 52 1 3  -0.162847   4.243582   0.000000  16.456818   # C_3
 53 1 3   0.004973   3.816533   0.000000  15.162836   # C_3
 54 1 4  -0.078801   2.444924  20.125964  14.843843   # N_3
 55 1 5  -0.000657   4.580585   0.000000  13.051809   # H_
 56 1 3  -0.015093   4.812636   0.000000  14.167768   # C_3
 57 1 3  -0.164049   6.106618   0.000000  14.593782   # C_3
 58 1 3   0.001863   6.532632   0.000000  15.887764   # C_3
 59 1 3   0.000302   5.537564   0.000000  16.883867   # C_3
 60 1 5   0.030085   5.769615   0.000000  17.999826   # H_
 61 1 5   0.012989   7.648591   0.000000  16.119815   # H_
 62 1 2  -0.793628   8.377452   0.000000  13.878790   # O_3
 63 1 3   0.534330   7.170619   0.000000  13.529781   # C_3
 64 1 2  -0.783269   6.821610   0.000000  12.322741   # O_3
 65 1 5   0.102169   2.093017  20.684875  14.028868   # H_
 66 1 3  -0.018917   2.636817  18.831154  14.240840   # C_3
 67 1 5   0.055038   3.480358  18.886631  13.578634   # H_
 68 1 5   0.005757   1.767400  18.504709  13.517982   # H_
 69 1 3  -0.034603   2.865763  17.722026  15.320366   # C_3
 70 1 5   0.054620   2.283254  18.114092  16.210276   # H_
 71 1 3  -0.156117   4.327212  17.472173  15.844500   # C_3
 72 1 5   0.035191   2.474319  16.775811  14.976532   # H_
 73 1 5   0.096924   4.530076  17.850369  16.864823   # H_
 74 1 5   0.092165   5.044273  17.929651  15.167597   # H_
 75 1 5   0.054590   4.537735  16.359733  15.857748   # H_
 76 1 3   0.563962   3.179581  10.350200   7.170619   # C_3
 77 1 2  -0.665296   3.528590  10.350200   8.377659   # O_3
 78 1 2  -0.661725   1.972541  10.350200   6.821610   # O_3
 79 1 3  -0.185595   4.243582  10.350200   6.106618   # C_3
 80 1 3   0.117632   3.816533  10.350200   4.812636   # C_3
 81 1 4  -0.148594   2.446580   9.863741   4.495299   # N_3
 82 1 5   0.038928   4.580585  10.350200   2.701609   # H_
 83 1 3  -0.024471   4.812636  10.350200   3.817568   # C_3
 84 1 3  -0.128058   6.106618  10.350200   4.243582   # C_3
 85 1 3  -0.002089   6.532632  10.350200   5.537564   # C_3
 86 1 3   0.037742   5.537564  10.350200   6.533667   # C_3
 87 1 5   0.026451   5.769615  10.350200   7.649626   # H_
 88 1 5   0.035266   7.648591  10.350200   5.769615   # H_
 89 1 2  -0.742719   8.377452  10.350200   3.528590   # O_3
 90 1 3   0.532632   7.170619  10.350200   3.179581   # C_3
 91 1 2  -0.754228   6.821610  10.350200   1.972541   # O_3
 92 1 5   0.084394   2.418842   8.839899   4.611428   # H_
 93 1 3  -0.026608   1.730346  10.360550   3.335455   # C_3
 94 1 5   0.016928   1.935280  11.427656   3.130107   # H_
 95 1 5  -0.014170   0.672970  10.281475   3.627538   # H_
 96 1 3  -0.049822   1.984340   9.512662   2.049547   # C_3
 97 1 5  -0.038989   1.181579   9.725876   1.340972   # H_
 98 1 3  -0.165120   2.123861   7.986835   2.285738   # C_3
 99 1 5   0.007046   2.947323   9.865190   1.569711   # H_
 100 1 5   0.061780   3.117273   7.774035   2.699332   # H_
 101 1 5   0.024091   1.932175   7.396667   1.370159   # H_
 102 1 5   0.045290   1.435780   7.711934   3.072146   # H_
 103 1 3   0.541728  13.529781   0.000000   7.170619   # C_3
 104 1 2  -0.705242  13.878790   0.000000   8.377659   # O_3
 105 1 2  -0.705979  12.322741   0.000000   6.821610   # O_3
 106 1 3  -0.176562  14.593782   0.000000   6.106618   # C_3
 107 1 3   0.018473  14.166733   0.000000   4.812636   # C_3
 108 1 4  -0.076101  12.843770  19.992860   4.410841   # N_3
 109 1 5   0.000842  14.930785   0.000000   2.701609   # H_
 110 1 3  -0.015605  15.162629   0.000000   3.817568   # C_3
 111 1 3  -0.147397  16.456611   0.000000   4.243582   # C_3
 112 1 3  -0.002418  16.882832   0.000000   5.537564   # C_3
 113 1 3   0.012674  15.887764   0.000000   6.533667   # C_3
 114 1 5   0.010886  16.119815   0.000000   7.649626   # H_
 115 1 5   0.030344  17.998791   0.000000   5.769615   # H_
 116 1 2  -0.638155  18.727652   0.000000   3.528590   # O_3
 117 1 3   0.531566  17.520612   0.000000   3.179581   # C_3
 118 1 2  -0.708686  17.171603   0.000000   1.972541   # O_3
 119 1 5   0.118802  12.595365  19.289047   5.155228   # H_
 120 1 3  -0.025905  12.917050  19.148077   3.175027   # C_3
 121 1 5   0.064818  13.301456  19.679042   2.286152   # H_
 122 1 5   0.031712  11.861950  18.947283   2.883980   # H_
 123 1 3  -0.031455  13.470164  17.735896   3.331108   # C_3
 124 1 5   0.042527  13.122398  17.351489   4.303820   # H_
 125 1 3  -0.163172  14.958523  17.672138   3.435438   # C_3
 126 1 5   0.025022  13.091554  17.042225   2.535178   # H_
 127 1 5   0.095644  15.417865  18.220285   2.548219   # H_
 128 1 5   0.078648  15.303185  16.646641   3.305854   # H_
 129 1 5   0.112230  15.281656  18.112850   4.399249   # H_
 130 1 3   0.543834  13.529781  10.350200  17.520819   # C_3
 131 1 2  -0.687588  13.878790  10.350200  18.727859   # O_3
 132 1 2  -0.730972  12.322741  10.350200  17.171810   # O_3
 133 1 3  -0.175746  14.593782  10.350200  16.456818   # C_3
 134 1 3   0.112310  14.166733  10.350200  15.162836   # C_3
 135 1 4  -0.143146  12.852671   9.610161  14.844464   # N_3
 136 1 5   0.046496  14.930785  10.350200  13.051809   # H_
 137 1 3  -0.021347  15.162629  10.350200  14.167768   # C_3
 138 1 3  -0.111680  16.456611  10.350200  14.593782   # C_3
 139 1 3   0.006274  16.882832  10.350200  15.887764   # C_3
 140 1 3   0.044172  15.887764  10.350200  16.883867   # C_3
 141 1 5   0.052154  16.119815  10.350200  17.999826   # H_
 142 1 5   0.059146  17.998791  10.350200  16.119815   # H_
 143 1 2  -0.601802  18.727652  10.350200  13.878790   # O_3
 144 1 3   0.530090  17.520612  10.350200  13.529781   # C_3
 145 1 2  -0.650542  17.171603  10.350200  12.322741   # O_3
 146 1 5   0.095613  12.715014   8.833689  15.560077   # H_
 147 1 3  -0.031608  12.824726   8.872398  13.570147   # C_3
 148 1 5   0.027609  13.163591   9.407504  12.671129   # H_
 149 1 5   0.028811  11.727605   8.722114  13.363557   # H_
 150 1 3  -0.041142  13.389019   7.388801  13.681308   # C_3
 151 1 5   0.039423  12.975425   6.847278  14.590056   # H_
 152 1 3  -0.166882  14.906565   7.156542  13.593125   # C_3
 153 1 5   0.030364  13.006475   6.855351  12.788914   # H_
 154 1 5   0.075540  15.357834   7.709243  12.769663   # H_
 155 1 5   0.069449  15.179603   6.086125  13.428763   # H_
 156 1 5   0.084005  15.304220   7.457319  14.561489   # H_
 157 1 3   0.526356  17.520819   0.000000  17.520819   # C_3
 158 1 2  -0.726169  17.171810   0.000000  18.727859   # O_3
 159 1 2  -0.730677  18.727859   0.000000  17.171810   # O_3
 160 1 3  -0.148000  16.456818   0.000000  16.456818   # C_3
 161 1 3   0.016213  16.883867   0.000000  15.162836   # C_3
 162 1 4  -0.000179  18.256097  20.178543  14.748828   # N_3
 163 1 5   0.006754  16.119815   0.000000  13.051809   # H_
 164 1 3  -0.005850  15.887971   0.000000  14.167768   # C_3
 165 1 3  -0.160576  14.593989   0.000000  14.593782   # C_3
 166 1 3   0.003470  14.167768   0.000000  15.887764   # C_3
 167 1 3   0.001517  15.162836   0.000000  16.883867   # C_3
 168 1 5   0.016129  14.930785   0.000000  17.999826   # H_
 169 1 5   0.007019  13.051809   0.000000  16.119815   # H_
 170 1 2  -0.799158  12.322948   0.000000  13.878790   # O_3
 171 1 3   0.536312  13.529988   0.000000  13.529781   # C_3
 172 1 2  -0.789739  13.878997   0.000000  12.322741   # O_3
 173 1 5   0.004438  18.725789   0.298086  14.305011   # H_
 174 1 3  -0.019697  18.201655  18.955356  13.852915   # C_3
 175 1 5   0.075160  17.206172  18.807348  13.354656   # H_
 176 1 5   0.090022  18.401828  18.039778  14.454261   # H_
 177 1 3  -0.034183  19.259031  19.028015  12.746892   # C_3
 178 1 5   0.085380  19.025738  19.951253  12.157345   # H_
 179 1 3  -0.147757  19.166500  17.909158  11.759897   # C_3
 180 1 5   0.098938  20.297984  19.140211  13.123019   # H_
 181 1 5   0.078255  18.617940  18.254027  10.819685   # H_
 182 1 5   0.087178  18.662032  17.025458  12.186946   # H_
 183 1 5   0.108776  20.220772  17.616661  11.469678   # H_
 184 1 3   0.543490  17.520819  10.350200   7.170619   # C_3
 185 1 2  -0.734549  17.171810  10.350200   8.377659   # O_3
 186 1 2  -0.678151  18.727859  10.350200   6.821610   # O_3
 187 1 3  -0.172701  16.456818  10.350200   6.106618   # C_3
 188 1 3   0.113996  16.883867  10.350200   4.812636   # C_3
 189 1 4  -0.133572  18.281351   9.928119   4.447895   # N_3
 190 1 5   0.038938  16.119815  10.350200   2.701609   # H_
 191 1 3  -0.023082  15.887971  10.350200   3.817568   # C_3
 192 1 3  -0.123195  14.593989  10.350200   4.243582   # C_3
 193 1 3   0.000758  14.167768  10.350200   5.537564   # C_3
 194 1 3   0.032681  15.162836  10.350200   6.533667   # C_3
 195 1 5   0.026979  14.930785  10.350200   7.649626   # H_
 196 1 5   0.035112  13.051809  10.350200   5.769615   # H_
 197 1 2  -0.658740  12.322948  10.350200   3.528590   # O_3
 198 1 3   0.540827  13.529988  10.350200   3.179581   # C_3
 199 1 2  -0.665634  13.878997  10.350200   1.972541   # O_3
 200 1 5   0.092765  18.693496  10.658843   3.868698   # H_
 201 1 3  -0.029681  18.208486   8.645729   3.734766   # C_3
 202 1 5   0.042653  17.204516   8.313695   3.370439   # H_
 203 1 5   0.085283  18.580679   7.909209   4.512894   # H_
 204 1 3  -0.037281  19.106055   8.656907   2.483013   # C_3
 205 1 5   0.021961  18.959703   9.551372   1.811699   # H_
 206 1 3  -0.171141  18.924099   7.461873   1.610698   # C_3
 207 1 5   0.086859  20.143766   8.628962   2.788758   # H_
 208 1 5   0.098683  18.696808   6.586453   2.224672   # H_
 209 1 5   0.081476  19.793101   7.272672   0.975196   # H_
 210 1 5   0.053278  18.126305   7.738431   0.940212   # H_
 211 1 3   0.554205   7.170619   0.000000   7.170619   # C_3
 212 1 2  -0.710547   6.821610   0.000000   8.377659   # O_3
 213 1 2  -0.688534   8.377659   0.000000   6.821610   # O_3
 214 1 3  -0.196789   6.106618   0.000000   6.106618   # C_3
 215 1 3   0.093116   6.533667   0.000000   4.812636   # C_3
 216 1 4  -0.187313   7.977313   0.029395   4.427816   # N_3
 217 1 5   0.021976   5.769615   0.000000   2.701609   # H_
 218 1 3  -0.036811   5.537564   0.000000   3.817568   # C_3
 219 1 3  -0.141963   4.243582   0.000000   4.243582   # C_3
 220 1 3  -0.011414   3.817568   0.000000   5.537564   # C_3
 221 1 3   0.020763   4.812636   0.000000   6.533667   # C_3
 222 1 5   0.000118   4.580585   0.000000   7.649626   # H_
 223 1 5   0.003917   2.701609   0.000000   5.769615   # H_
 224 1 2  -0.701511   1.972748   0.000000   3.528590   # O_3
 225 1 3   0.540248   3.179581   0.000000   3.179581   # C_3
 226 1 2  -0.708579   3.528590   0.000000   1.972541   # O_3
 227 1 5   0.067563   8.162996   0.977266   4.049205   # H_
 228 1 3  -0.025087   8.390907  19.747561   3.418050   # C_3
 229 1 5   0.068717   7.762443  18.825979   3.401283   # H_
 230 1 5   0.062313   9.411851  19.482802   3.675977   # H_
 231 1 3   0.291398   8.507450  20.349528   2.019945   # C_3
 232 1 5  -0.134264   7.544261   0.036019   1.668452   # H_
 233 1 3  -0.281115   8.941331  19.343075   0.985339   # C_3
 234 1 5  -0.127019   9.232792   0.516889   2.059483   # H_
 235 1 5   0.074678   8.546160  18.309297   1.217598   # H_
 236 1 5   0.079406  10.008229  19.364189   0.950355   # H_
 237 1 5   0.078491   8.595634  19.671176   0.005175   # H_
 238 1 3   0.549972   7.170619  10.350200  17.520819   # C_3
 239 1 2  -0.623259   6.821610  10.350200  18.727859   # O_3
 240 1 2  -0.649105   8.377659  10.350200  17.171810   # O_3
 241 1 3  -0.174470   6.106618  10.350200  16.456818   # C_3
 242 1 3   0.106017   6.533667  10.350200  15.162836   # C_3
 243 1 4  -0.142241   7.997600  10.174868  14.771391   # N_3
 244 1 5   0.042762   5.769615  10.350200  13.051809   # H_
 245 1 3  -0.023554   5.537564  10.350200  14.167768   # C_3
 246 1 3  -0.130891   4.243582  10.350200  14.593782   # C_3
 247 1 3   0.000518   3.817568  10.350200  15.887764   # C_3
 248 1 3   0.028715   4.812636  10.350200  16.883867   # C_3
 249 1 5   0.035290   4.580585  10.350200  17.999826   # H_
 250 1 5   0.031474   2.701609  10.350200  16.119815   # H_
 251 1 2  -0.752693   1.972748  10.350200  13.878790   # O_3
 252 1 3   0.532062   3.179581  10.350200  13.529781   # C_3
 253 1 2  -0.744738   3.528590  10.350200  12.322741   # O_3
 254 1 5   0.077616   8.356337  11.107628  14.538098   # H_
 255 1 3  -0.033456   8.173760   9.243350  13.651914   # C_3
 256 1 5   0.041246   7.252385   8.655251  13.396264   # H_
 257 1 5   0.041062   8.931395   8.525874  13.900940   # H_
 258 1 3  -0.048612   8.723977   9.956271  12.416721   # C_3
 259 1 5   0.028026   8.001533  10.730259  12.085101   # H_
 260 1 3  -0.156110   9.005916   8.989563  11.250874   # C_3
 261 1 5   0.030647   9.655081  10.474609  12.746478   # H_
 262 1 5   0.052886   8.032997   8.580730  10.896691   # H_
 263 1 5   0.054243   9.619062   8.154302  11.588705   # H_
 264 1 5   0.051899   9.524461   9.553235  10.457842   # H_
 265 1 3   0.532513  17.520819   3.179581   0.000000   # C_3
 266 1 2  -0.721245  18.727859   3.528590   0.000000   # O_3
 267 1 2  -0.781761  17.171810   1.972541   0.000000   # O_3
 268 1 3  -0.155640  16.456818   4.243582   0.000000   # C_3
 269 1 3   0.012503  15.162836   3.816533   0.000000   # C_3
 270 1 4  -0.018087  14.746137   2.390482  20.606834   # N_3
 271 1 5   0.008110  13.051809   4.580585   0.000000   # H_
 272 1 3   0.001999  14.167768   4.812636   0.000000   # C_3
 273 1 3  -0.156913  14.593782   6.106618   0.000000   # C_3
 274 1 3   0.009017  15.887764   6.532632   0.000000   # C_3
 275 1 3   0.007675  16.883867   5.537564   0.000000   # C_3
 276 1 5   0.033588  17.999826   5.769615   0.000000   # H_
 277 1 5   0.015779  16.119815   7.648591   0.000000   # H_
 278 1 2  -0.700050  13.878790   8.377452   0.000000   # O_3
 279 1 3   0.543556  13.529781   7.170619   0.000000   # C_3
 280 1 2  -0.701845  12.322741   6.821610   0.000000   # O_3
 281 1 5   0.095477  14.745102   2.156982  19.630810   # H_
 282 1 3  -0.275195  13.467473   2.024292   0.650821   # C_3
 283 1 5   0.081090  13.317809   2.614047   1.586479   # H_
 284 1 5   0.041502  13.617137   1.005418   0.950976   # H_
 285 1 3   0.272850  12.173077   1.978544  20.427983   # C_3
 286 1 5  -0.162546  11.634867   1.123204   0.040159   # H_
 287 1 3  -0.240747  12.468886   1.725792  18.929274   # C_3
 288 1 5   0.006204  11.518738   2.846305  20.548459   # H_
 289 1 5   0.089792  13.053258   2.537455  18.434534   # H_
 290 1 5   0.057739  11.578976   1.563501  18.276590   # H_
 291 1 5   0.060325  13.088863   0.789306  18.900293   # H_
 292 1 3   0.549335  17.520819  13.529781  10.350200   # C_3
 293 1 2  -0.697964  18.727859  13.878790  10.350200   # O_3
 294 1 2  -0.727728  17.171810  12.322741  10.350200   # O_3
 295 1 3  -0.175146  16.456818  14.593782  10.350200   # C_3
 296 1 3   0.116285  15.162836  14.166733  10.350200   # C_3
 297 1 4  -0.144076  14.837219  12.682100  10.160584   # N_3
 298 1 5   0.049636  13.051809  14.930785  10.350200   # H_
 299 1 3  -0.024579  14.167768  15.162629  10.350200   # C_3
 300 1 3  -0.106717  14.593782  16.456611  10.350200   # C_3
 301 1 3   0.003028  15.887764  16.882832  10.350200   # C_3
 302 1 3   0.044927  16.883867  15.887764  10.350200   # C_3
 303 1 5   0.047209  17.999826  16.119815  10.350200   # H_
 304 1 5   0.062392  16.119815  17.998791  10.350200   # H_
 305 1 2  -0.601581  13.878790  18.727652  10.350200   # O_3
 306 1 3   0.529590  13.529781  17.520612  10.350200   # C_3
 307 1 2  -0.648712  12.322741  17.171603  10.350200   # O_3
 308 1 5   0.083969  15.035736  12.315703   9.221821   # H_
 309 1 3  -0.023301  13.560625  12.279270  10.743715   # C_3
 310 1 5   0.038961  13.364799  12.812099  11.748512   # H_
 311 1 5   0.029023  13.628108  11.222929  11.003505   # H_
 312 1 3  -0.052398  12.315910  12.409890   9.848008   # C_3
 313 1 5   0.028185  11.635488  11.557240   9.982147   # H_
 314 1 3  -0.151278  12.616687  12.525398   8.362548   # C_3
 315 1 5   0.034678  11.765693  13.297937  10.132225   # H_
 316 1 5   0.061986  13.243909  13.434560   8.182454   # H_
 317 1 5   0.052762  11.778942  12.544442   7.667221   # H_
 318 1 5   0.054923  13.228177  11.645010   8.112487   # H_
 319 1 3   0.562401   7.170619   3.179581  10.350200   # C_3
 320 1 2  -0.665109   8.377659   3.528590  10.350200   # O_3
 321 1 2  -0.671064   6.821610   1.972541  10.350200   # O_3
 322 1 3  -0.187539   6.106618   4.243582  10.350200   # C_3
 323 1 3   0.111540   4.812636   3.816533  10.350200   # C_3
 324 1 4  -0.159234   4.441685   2.458172   9.745334   # N_3
 325 1 5   0.042302   2.701609   4.580585  10.350200   # H_
 326 1 3  -0.022040   3.817568   4.812636  10.350200   # C_3
 327 1 3  -0.124187   4.243582   6.106618  10.350200   # C_3
 328 1 3  -0.001481   5.537564   6.532632  10.350200   # C_3
 329 1 3   0.038522   6.533667   5.537564  10.350200   # C_3
 330 1 5   0.027780   7.649626   5.769615  10.350200   # H_
 331 1 5   0.035880   5.769615   7.648591  10.350200   # H_
 332 1 2  -0.659039   3.528590   8.377452  10.350200   # O_3
 333 1 3   0.537594   3.179581   7.170619  10.350200   # C_3
 334 1 2  -0.654997   1.972541   6.821610  10.350200   # O_3
 335 1 5   0.094633   5.143221   2.263589   9.017508   # H_
 336 1 3  -0.019263   3.118929   2.312649   9.050008   # C_3
 337 1 5  -0.003309   2.213080   2.573267   9.695860   # H_
 338 1 5  -0.014170   2.964504   1.247613   8.872812   # H_
 339 1 3  -0.050912   2.937801   2.894330   7.683574   # C_3
 340 1 5   0.020821   2.692708   2.084530   6.979140   # H_
 341 1 3  -0.151227   4.042995   3.713238   7.072706   # C_3
 342 1 5   0.029199   2.092189   3.586344   7.690613   # H_
 343 1 5   0.070004   4.131179   4.606460   7.669912   # H_
 344 1 5   0.060159   3.712203   4.031610   6.050106   # H_
 345 1 5   0.063150   5.020054   3.204422   6.951608   # H_
 346 1 3   0.549260   7.170619  13.529781   0.000000   # C_3
 347 1 2  -0.704489   8.377659  13.878790   0.000000   # O_3
 348 1 2  -0.722113   6.821610  12.322741   0.000000   # O_3
 349 1 3  -0.180607   6.106618  14.593782   0.000000   # C_3
 350 1 3   0.029028   4.812636  14.166733   0.000000   # C_3
 351 1 4  -0.085913   4.374409  12.745857  20.254306   # N_3
 352 1 5   0.006667   2.701609  14.930785   0.000000   # H_
 353 1 3  -0.018341   3.817568  15.162629   0.000000   # C_3
 354 1 3  -0.144851   4.243582  16.456611   0.000000   # C_3
 355 1 3  -0.004244   5.537564  16.882832   0.000000   # C_3
 356 1 3   0.019312   6.533667  15.887764   0.000000   # C_3
 357 1 5   0.012364   7.649626  16.119815   0.000000   # H_
 358 1 5   0.040621   5.769615  17.998791   0.000000   # H_
 359 1 2  -0.719933   3.528590  18.727652   0.000000   # O_3
 360 1 3   0.524743   3.179581  17.520612   0.000000   # C_3
 361 1 2  -0.779757   1.972541  17.171603   0.000000   # O_3
 362 1 5   0.119317   4.845757  11.830900  20.330484   # H_
 363 1 3  -0.008186   3.334420  12.763453  19.191962   # C_3
 364 1 5   0.039963   2.318445  12.888069  19.607833   # H_
 365 1 5   0.026733   3.350981  11.776665  18.740279   # H_
 366 1 3  -0.044000   3.640786  13.755830  18.097118   # C_3
 367 1 5   0.030568   2.875907  13.617344  17.309260   # H_
 368 1 3  -0.134222   5.052140  13.604924  17.446504   # C_3
 369 1 5   0.071152   3.572268  14.817760  18.392512   # H_
 370 1 5   0.090610   5.819917  13.104181  18.072898   # H_
 371 1 5   0.060562   5.497405  14.569149  17.044088   # H_
 372 1 5   0.053780   4.906616  12.977702  16.532581   # H_
 373 1 3   0.527481  17.520819  17.520819   0.000000   # C_3
 374 1 2  -0.643815  18.727859  17.171810   0.000000   # O_3
 375 1 2  -0.643993  17.171810  18.727859   0.000000   # O_3
 376 1 3  -0.143107  16.456818  16.456818   0.000000   # C_3
 377 1 3   0.009318  15.162836  16.883867   0.000000   # C_3
 378 1 4  -0.001105  14.783398  18.311574  20.382235   # N_3
 379 1 5  -0.000351  13.051809  16.119815   0.000000   # H_
 380 1 3  -0.003227  14.167768  15.887971   0.000000   # C_3
 381 1 3  -0.160595  14.593782  14.593989   0.000000   # C_3
 382 1 3   0.004501  15.887764  14.167768   0.000000   # C_3
 383 1 3  -0.000666  16.883867  15.162836   0.000000   # C_3
 384 1 5   0.019759  17.999826  14.930785   0.000000   # H_
 385 1 5   0.009882  16.119815  13.051809   0.000000   # H_
 386 1 2  -0.778289  13.878790  12.322948   0.000000   # O_3
 387 1 3   0.534185  13.529781  13.529988   0.000000   # C_3
 388 1 2  -0.780537  12.322741  13.878997   0.000000   # O_3
 389 1 5   0.018732  14.522987  18.850612   0.548147   # H_
 390 1 3  -0.064401  13.594367  18.350698  19.489634   # C_3
 391 1 5   0.084574  13.550068  17.449402  18.832603   # H_
 392 1 5   0.104517  13.771769  19.233984  18.886838   # H_
 393 1 3   0.121951  12.187568  18.625392  20.119961   # C_3
 394 1 5   0.051617  11.817651  17.761357  20.684254   # H_
 395 1 3  -0.229306  11.154204  18.946662  18.995515   # C_3
 396 1 5  -0.049435  12.299764  19.538280   0.076591   # H_
 397 1 5   0.110046  11.627001  19.305814  18.053854   # H_
 398 1 5   0.144234  10.540437  19.753564  19.408695   # H_
 399 1 5   0.099266  10.527602  18.094841  18.757874   # H_
 400 1 3   0.545906  17.520819   7.170619  10.350200   # C_3
 401 1 2  -0.599035  18.727859   6.821610  10.350200   # O_3
 402 1 2  -0.649471  17.171810   8.377659  10.350200   # O_3
 403 1 3  -0.167125  16.456818   6.106618  10.350200   # C_3
 404 1 3   0.102569  15.162836   6.533667  10.350200   # C_3
 405 1 4  -0.141332  14.734959   7.983523  10.093722   # N_3
 406 1 5   0.042681  13.051809   5.769615  10.350200   # H_
 407 1 3  -0.020419  14.167768   5.537564  10.350200   # C_3
 408 1 3  -0.130821  14.593782   4.243582  10.350200   # C_3
 409 1 3   0.003846  15.887764   3.817568  10.350200   # C_3
 410 1 3   0.029423  16.883867   4.812636  10.350200   # C_3
 411 1 5   0.043241  17.999826   4.580585  10.350200   # H_
 412 1 5   0.031057  16.119815   2.701609  10.350200   # H_
 413 1 2  -0.752095  13.878790   1.972748  10.350200   # O_3
 414 1 3   0.533159  13.529781   3.179581  10.350200   # C_3
 415 1 2  -0.744408  12.322741   3.528590  10.350200   # O_3
 416 1 5   0.073729  14.452812   8.416990  10.991084   # H_
 417 1 3  -0.035390  13.686069   8.090337   9.061807   # C_3
 418 1 5   0.044122  13.632455   7.130253   8.449075   # H_
 419 1 5   0.044047  14.005684   8.846937   8.411401   # H_
 420 1 3  -0.054661  12.299143   8.512004   9.617820   # C_3
 421 1 5   0.029999  11.917841   7.697858  10.274230   # H_
 422 1 3  -0.139644  11.359552   8.824374   8.402085   # C_3
 423 1 5   0.030174  12.411546   9.385768  10.268433   # H_
 424 1 5   0.052918  11.758862   8.391735   7.439724   # H_
 425 1 5   0.045498  11.270747   9.954408   8.355716   # H_
 426 1 5   0.047290  10.361999   8.370207   8.609296   # H_
 427 1 3   0.542168   7.170619  17.520819  10.350200   # C_3
 428 1 2  -0.735891   8.377659  17.171810  10.350200   # O_3
 429 1 2  -0.679148   6.821610  18.727859  10.350200   # O_3
 430 1 3  -0.175755   6.106618  16.456818  10.350200   # C_3
 431 1 3   0.113749   4.812636  16.883867  10.350200   # C_3
 432 1 4  -0.133002   4.477704  18.299982  10.711215   # N_3
 433 1 5   0.039769   2.701609  16.119815  10.350200   # H_
 434 1 3  -0.022981   3.817568  15.887971  10.350200   # C_3
 435 1 3  -0.130277   4.243582  14.593989  10.350200   # C_3
 436 1 3   0.000221   5.537564  14.167768  10.350200   # C_3
 437 1 3   0.029328   6.533667  15.162836  10.350200   # C_3
 438 1 5   0.030229   7.649626  14.930785  10.350200   # H_
 439 1 5   0.033578   5.769615  13.051809  10.350200   # H_
 440 1 2  -0.744747   3.528590  12.322948  10.350200   # O_3
 441 1 3   0.535332   3.179581  13.529988  10.350200   # C_3
 442 1 2  -0.762792   1.972541  13.878997  10.350200   # O_3
 443 1 5   0.084575   4.186242  18.252164  11.699245   # H_
 444 1 3  -0.035645   3.498989  18.956391   9.890651   # C_3
 445 1 5   0.067881   3.582825  18.592685   8.856459   # H_
 446 1 5   0.084596   3.748842  20.018943   9.917769   # H_
 447 1 3  -0.043092   2.089912  18.903398  10.464466   # C_3
 448 1 5   0.013727   1.876077  17.931929  10.934986   # H_
 449 1 3  -0.152882   1.083252  19.126756   9.322425   # C_3
 450 1 5   0.035557   1.952876  19.680698  11.229760   # H_
 451 1 5   0.054884   1.251753  18.358771   8.539950   # H_
 452 1 5   0.069527   1.219047  20.110853   8.850249   # H_
 453 1 5   0.009398   0.018630  19.081215   9.629826   # H_
 454 1 3   0.534235   7.170619   7.170619   0.000000   # C_3
 455 1 2  -0.788809   8.377659   6.821610   0.000000   # O_3
 456 1 2  -0.787801   6.821610   8.377659   0.000000   # O_3
 457 1 3  -0.171489   6.106618   6.106618   0.000000   # C_3
 458 1 3   0.011508   4.812636   6.533667   0.000000   # C_3
 459 1 4  -0.016761   4.409599   7.925355  20.328414   # N_3
 460 1 5   0.002668   2.701609   5.769615   0.000000   # H_
 461 1 3  -0.006867   3.817568   5.537564   0.000000   # C_3
 462 1 3  -0.160347   4.243582   4.243582   0.000000   # C_3
 463 1 3  -0.003457   5.537564   3.817568   0.000000   # C_3
 464 1 3  -0.001822   6.533667   4.812636   0.000000   # C_3
 465 1 5  -0.001422   7.649626   4.580585   0.000000   # H_
 466 1 5  -0.000923   5.769615   2.701609   0.000000   # H_
 467 1 2  -0.709753   3.528590   1.972748   0.000000   # O_3
 468 1 3   0.547747   3.179581   3.179581   0.000000   # C_3
 469 1 2  -0.709760   1.972541   3.528590   0.000000   # O_3
 470 1 5  -0.008827   3.932248   8.340812   0.455202   # H_
 471 1 3  -0.019382   3.541424   7.984765  19.124686   # C_3
 472 1 5   0.068446   3.193658   6.982452  18.835087   # H_
 473 1 5   0.052686   4.142564   8.289061  18.208072   # H_
 474 1 3  -0.056502   2.246821   8.809676  19.334174   # C_3
 475 1 5   0.071960   1.758499   8.471846  20.266520   # H_
 476 1 3  -0.138036   1.159843   8.650076  18.251129   # C_3
 477 1 5   0.045981   2.524000   9.872435  19.411800   # H_
 478 1 5   0.058178   1.328759   7.672396  17.763427   # H_
 479 1 5   0.036715   1.191308   9.461118  17.504051   # H_
 480 1 5   0.019587   0.122546   8.582800  18.730757   # H_
 481 1 3   0.536542   0.000000  17.520819   3.179581   # C_3
 482 1 2  -0.637948   0.000000  18.727859   3.528590   # O_3
 483 1 2  -0.708362   0.000000  17.171810   1.972541   # O_3
 484 1 3  -0.153162   0.000000  16.456818   4.243582   # C_3
 485 1 3   0.010318   0.000000  15.162836   3.816533   # C_3
 486 1 4  -0.005551  20.356566  14.832044   2.393173   # N_3
 487 1 5   0.007180   0.000000  13.051809   4.580585   # H_
 488 1 3   0.002578   0.000000  14.167768   4.812636   # C_3