 (written by mofun)

768 atoms
0 bonds
0 angles
0 dihedrals
0 impropers

5 atom types
   0.000000  20.700400 xlo xhi
   0.000000  20.700400 ylo yhi
   0.000000  20.700400 zlo zhi

Masses

 1 91.2240   # Zr3+4
 2 15.9994   # O_3
 3 12.0107   # C_3
 4 14.0067   # N_3
 5 1.0079   # H_

Pair Coeffs

 1   0.069000   2.783168 # Zr3+4
 2   0.060000   3.118146 # O_3
 3   0.105000   3.430851 # C_3
 4   0.069000   3.260689 # N_3
 5   0.044000   2.571134 # H_

Atoms

 1 1 1   3.169620   2.481771   0.000000   0.000000   # Zr3+4
 2 1 1   3.190210   2.481771  10.350200  10.350200   # Zr3+4
 3 1 1   3.177540  12.831971   0.000000  10.350200   # Zr3+4
 4 1 1   3.181320  12.831971  10.350200   0.000000   # Zr3+4
 5 1 1   3.167380  18.218629   0.000000   0.000000   # Zr3+4
 6 1 1   3.190890  18.218629  10.350200  10.350200   # Zr3+4
 7 1 1   3.179860   7.868429   0.000000  10.350200   # Zr3+4
 8 1 1   3.178390   7.868429  10.350200   0.000000   # Zr3+4
 9 1 1   3.169700   0.000000   2.481771   0.000000   # Zr3+4
 10 1 1   3.145440   0.000000  12.831971  10.350200   # Zr3+4
 11 1 1   3.190260  10.350200   2.481771  10.350200   # Zr3+4
 12 1 1   3.181260  10.350200  12.831971   0.000000   # Zr3+4
 13 1 1   3.167110   0.000000  18.218629   0.000000   # Zr3+4
 14 1 1   3.211870   0.000000   7.868429  10.350200   # Zr3+4
 15 1 1   3.190960  10.350200  18.218629  10.350200   # Zr3+4
 16 1 1   3.178950  10.350200   7.868429   0.000000   # Zr3+4
 17 1 1   3.200070   0.000000   0.000000   2.481771   # Zr3+4
 18 1 1   3.177520   0.000000  10.350200  12.831971   # Zr3+4
 19 1 1   3.145470  10.350200   0.000000  12.831971   # Zr3+4
 20 1 1   3.190810  10.350200  10.350200   2.481771   # Zr3+4
 21 1 1   3.135110   0.000000   0.000000  18.218629   # Zr3+4
 22 1 1   3.179390   0.000000  10.350200   7.868429   # Zr3+4
 23 1 1   3.211320  10.350200   0.000000   7.868429   # Zr3+4
 24 1 1   3.191540  10.350200  10.350200  18.218629   # Zr3+4
 25 1 2  -1.312860   1.161292   9.188908   9.188908   # O_3
 26 1 2  -1.225430  11.511492  19.539108   9.188908   # O_3
 27 1 2  -1.333220  11.511492   9.188908  19.539108   # O_3
 28 1 2  -1.312920   9.188908   1.161292   9.188908   # O_3
 29 1 2  -1.334100   9.188908  11.511492  19.539108   # O_3
 30 1 2  -1.185920  19.539108  19.539108   1.161292   # O_3
 31 1 2  -1.225100  19.539108   9.188908  11.511492   # O_3
 32 1 2  -1.361060   1.161292   1.161292   1.161292   # O_3
 33 1 2  -1.415570  11.511492  11.511492   1.161292   # O_3
 34 1 2  -1.355100  19.539108   1.161292   1.161292   # O_3
 35 1 2  -1.445140  19.539108  11.511492  11.511492   # O_3
 36 1 2  -1.534820   9.188908   1.161292  11.511492   # O_3
 37 1 2  -1.422030   9.188908  11.511492   1.161292   # O_3
 38 1 2  -1.355650   1.161292  19.539108   1.161292   # O_3
 39 1 2  -1.405990   1.161292   9.188908  11.511492   # O_3
 40 1 2  -1.445290  11.511492  19.539108  11.511492   # O_3
 41 1 2  -1.421840  11.511492   9.188908   1.161292   # O_3
 42 1 2  -1.313490  19.539108  19.539108  19.539108   # O_3
 43 1 2  -1.307820  19.539108   9.188908   9.188908   # O_3
 44 1 2  -1.308130   9.188908  19.539108   9.188908   # O_3
 45 1 2  -1.339570   9.188908   9.188908  19.539108   # O_3
 46 1 2  -1.486780   1.161292   1.161292  19.539108   # O_3
 47 1 2  -1.535250   1.161292  11.511492   9.188908   # O_3
 48 1 2  -1.406240  11.511492   1.161292   9.188908   # O_3
 49 1 3   0.538763   3.179581   0.000000  17.520819   # C_3
 50 1 2  -0.733087   3.528590   0.000000  18.727859   # O_3
 51 1 2  -0.809500   1.972541   0.000000  17.171810   # O_3
 52 1 3  -0.176074   4.243582   0.000000  16.456818   # C_3
 53 1 3   0.028654   3.816533   0.000000  15.162836   # C_3
 54 1 4  -0.091875   2.736800  19.585269  14.897043   # N_3
 55 1 5   0.010113   4.580585   0.000000  13.051809   # H_
 56 1 3  -0.010923   4.812636   0.000000  14.167768   # C_3
 57 1 3  -0.161980   6.106618   0.000000  14.593782   # C_3
 58 1 3  -0.000155   6.532632   0.000000  15.887764   # C_3
 59 1 3   0.010532   5.537564   0.000000  16.883867   # C_3
 60 1 5   0.029127   5.769615   0.000000  17.999826   # H_
 61 1 5   0.018347   7.648591   0.000000  16.119815   # H_
 62 1 2  -0.790991   8.377452   0.000000  13.878790   # O_3
 63 1 3   0.534034   7.170619   0.000000  13.529781   # C_3
 64 1 2  -0.782103   6.821610   0.000000  12.322741   # O_3
 65 1 5   0.102827   1.761397  19.726653  15.218727   # H_
 66 1 3  -0.005920   3.177304  18.226288  15.442291   # C_3
 67 1 5   0.032232   2.304783  17.601550  15.664200   # H_
 68 1 5   0.060948   3.777409  18.279902  16.370704   # H_
 69 1 3  -0.087184   4.099507  17.454370  14.505598   # C_3
 70 1 5   0.079405   4.963749  18.078901  14.218070   # H_
 71 1 3  -0.020781   3.349532  16.898151  13.311806   # C_3
 72 1 5   0.040751   4.484121  16.569635  15.062646   # H_
 73 1 5   0.032797   4.138010  16.614555  12.638215   # H_
 74 1 5   0.025426   2.800557  15.986091  13.664955   # H_
 75 1 3  -0.155331   2.360260  17.900050  12.713358   # C_3
 76 1 5   0.081111   2.828917  18.896360  12.498488   # H_
 77 1 5   0.052593   1.503056  18.037501  13.386535   # H_
 78 1 5   0.046229   1.917892  17.456026  11.814960   # H_
 79 1 3   0.561549   3.179581  10.350200   7.170619   # C_3
 80 1 2  -0.667082   3.528590  10.350200   8.377659   # O_3
 81 1 2  -0.677369   1.972541  10.350200   6.821610   # O_3
 82 1 3  -0.182077   4.243582  10.350200   6.106618   # C_3
 83 1 3   0.100011   3.816533  10.350200   4.812636   # C_3
 84 1 4  -0.151207   2.776338   9.194704   4.538149   # N_3
 85 1 5   0.042756   4.580585  10.350200   2.701609   # H_
 86 1 3  -0.019845   4.812636  10.350200   3.817568   # C_3
 87 1 3  -0.132235   6.106618  10.350200   4.243582   # C_3
 88 1 3  -0.001170   6.532632  10.350200   5.537564   # C_3
 89 1 3   0.032742   5.537564  10.350200   6.533667   # C_3
 90 1 5   0.026674   5.769615  10.350200   7.649626   # H_
 91 1 5   0.033416   7.648591  10.350200   5.769615   # H_
 92 1 2  -0.744290   8.377452  10.350200   3.528590   # O_3
 93 1 3   0.532420   7.170619  10.350200   3.179581   # C_3
 94 1 2  -0.755417   6.821610  10.350200   1.972541   # O_3
 95 1 5   0.077824   1.837160   9.346024   4.898750   # H_
 96 1 3  -0.013475   3.225950   7.897203   5.150674   # C_3
 97 1 5   0.038766   2.332107   7.310967   5.462008   # H_
 98 1 5   0.038213   3.849653   8.017058   6.047415   # H_
 99 1 3  -0.081137   4.101163   7.094648   4.217292   # C_3
 100 1 5   0.047337   4.670631   7.756026   3.536456   # H_
 101 1 3  -0.033704   3.195107   6.171617   3.387827   # C_3
 102 1 5   0.035542   4.825884   6.501168   4.839133   # H_
 103 1 5   0.035190   3.852758   5.554952   2.738663   # H_
 104 1 5   0.039284   2.627295   5.518727   4.061004   # H_
 105 1 3  -0.148790   2.217634   7.022197   2.524414   # C_3
 106 1 5   0.045016   2.757707   7.846901   2.038575   # H_
 107 1 5   0.046145   1.411146   7.513003   3.045443   # H_
 108 1 5   0.040500   1.792862   6.404290   1.741939   # H_
 109 1 3   0.542389  13.529781   0.000000   7.170619   # C_3
 110 1 2  -0.705254  13.878790   0.000000   8.377659   # O_3
 111 1 2  -0.714314  12.322741   0.000000   6.821610   # O_3
 112 1 3  -0.183298  14.593782   0.000000   6.106618   # C_3
 113 1 3   0.028412  14.166733   0.000000   4.812636   # C_3
 114 1 4  -0.093584  13.028418  19.677800   4.507305   # N_3
 115 1 5   0.007679  14.930785   0.000000   2.701609   # H_
 116 1 3  -0.015744  15.162629   0.000000   3.817568   # C_3
 117 1 3  -0.146370  16.456611   0.000000   4.243582   # C_3
 118 1 3  -0.001362  16.882832   0.000000   5.537564   # C_3
 119 1 3   0.017537  15.887764   0.000000   6.533667   # C_3
 120 1 5   0.017124  16.119815   0.000000   7.649626   # H_
 121 1 5   0.039772  17.998791   0.000000   5.769615   # H_
 122 1 2  -0.638501  18.727652   0.000000   3.528590   # O_3
 123 1 3   0.532507  17.520612   0.000000   3.179581   # C_3
 124 1 2  -0.711020  17.171603   0.000000   1.972541   # O_3
 125 1 5   0.114014  12.054878  19.926619   4.744532   # H_
 126 1 3   0.003952  13.330230  18.387751   5.203667   # C_3
 127 1 5   0.037827  12.444666  17.798825   5.305513   # H_
 128 1 5   0.067486  13.702630  18.441158   6.236617   # H_
 129 1 3  -0.090087  14.367941  17.600101   4.389934   # C_3
 130 1 5   0.091312  15.112948  18.233119   3.908236   # H_
 131 1 3  -0.023149  13.728919  16.750764   3.313927   # C_3
 132 1 5   0.049927  14.920020  16.914090   5.101821   # H_
 133 1 5   0.036296  14.556935  16.489318   2.638266   # H_
 134 1 5   0.032738  13.378255  15.834978   3.792727   # H_
 135 1 3  -0.167734  12.610063  17.475071   2.465211   # C_3
 136 1 5   0.067177  13.105630  18.279695   1.928656   # H_
 137 1 5   0.069432  11.802954  17.924062   3.028676   # H_
 138 1 5   0.055404  12.166453  16.762149   1.765537   # H_
 139 1 3   0.544287  13.529781  10.350200  17.520819   # C_3
 140 1 2  -0.690183  13.878790  10.350200  18.727859   # O_3
 141 1 2  -0.736662  12.322741  10.350200  17.171810   # O_3
 142 1 3  -0.176776  14.593782  10.350200  16.456818   # C_3
 143 1 3   0.109001  14.166733  10.350200  15.162836   # C_3
 144 1 4  -0.145756  12.963418   9.438968  14.845085   # N_3
 145 1 5   0.043610  14.930785  10.350200  13.051809   # H_
 146 1 3  -0.021463  15.162629  10.350200  14.167768   # C_3
 147 1 3  -0.113550  16.456611  10.350200  14.593782   # C_3
 148 1 3   0.008318  16.882832  10.350200  15.887764   # C_3
 149 1 3   0.045037  15.887764  10.350200  16.883867   # C_3
 150 1 5   0.061029  16.119815  10.350200  17.999826   # H_
 151 1 5   0.069511  17.998791  10.350200  16.119815   # H_
 152 1 2  -0.604374  18.727652  10.350200  13.878790   # O_3
 153 1 3   0.530225  17.520612  10.350200  13.529781   # C_3
 154 1 2  -0.654114  17.171603  10.350200  12.322741   # O_3
 155 1 5   0.077898  11.997538   9.777627  15.082104   # H_
 156 1 3  -0.013756  13.290485   8.070258  15.309602   # C_3
 157 1 5   0.041883  12.408648   7.525630  15.556144   # H_
 158 1 5   0.047554  13.922882   8.029892  16.220626   # H_
 159 1 3  -0.091307  14.068199   7.360648  14.195920   # C_3
 160 1 5   0.057293  14.760213   8.045417  13.673649   # H_
 161 1 3  -0.014774  13.298765   6.647933  13.149722   # C_3
 162 1 5   0.044101  14.686520   6.598460  14.698940   # H_
 163 1 5   0.028946  14.126988   6.307826  12.535334   # H_
 164 1 5   0.024914  12.814376   5.764440  13.623347   # H_
 165 1 3  -0.190629  12.337024   7.637413  12.469714   # C_3
 166 1 5   0.068476  12.800713   8.601223  12.269541   # H_
 167 1 5   0.070931  11.544199   7.757061  13.144961   # H_
 168 1 5   0.065005  11.929020   7.210984  11.590154   # H_
 169 1 3   0.531642  17.520819   0.000000  17.520819   # C_3
 170 1 2  -0.746345  17.171810   0.000000  18.727859   # O_3
 171 1 2  -0.747604  18.727859   0.000000  17.171810   # O_3
 172 1 3  -0.167252  16.456818   0.000000  16.456818   # C_3
 173 1 3   0.022855  16.883867   0.000000  15.162836   # C_3
 174 1 4  -0.087033  18.087596  19.801175  14.809480   # N_3
 175 1 5   0.007658  16.119815   0.000000  13.051809   # H_
 176 1 3  -0.014867  15.887971   0.000000  14.167768   # C_3
 177 1 3  -0.156174  14.593989   0.000000  14.593782   # C_3
 178 1 3  -0.003616  14.167768   0.000000  15.887764   # C_3
 179 1 3   0.005629  15.162836   0.000000  16.883867   # C_3
 180 1 5   0.003344  14.930785   0.000000  17.999826   # H_
 181 1 5   0.014431  13.051809   0.000000  16.119815   # H_
 182 1 2  -0.795615  12.322948   0.000000  13.878790   # O_3
 183 1 3   0.533829  13.529988   0.000000  13.529781   # C_3
 184 1 2  -0.787234  13.878997   0.000000  12.322741   # O_3
 185 1 5   0.124008  17.718714  18.841504  14.727714   # H_
 186 1 3   0.086480  18.867380  19.989962  13.604303   # C_3
 187 1 5   0.068356  18.279488  20.300468  12.720603   # H_
 188 1 5   0.062228  19.358807  19.005658  13.342443   # H_
 189 1 3  -0.124314  19.905091   0.281939  14.031559   # C_3
 190 1 5   0.077400  19.491497   1.282597  14.089934   # H_
 191 1 3  -0.425931   0.308436   0.352114  13.045185   # C_3
 192 1 5   0.178497  20.320755  20.682805  15.034494   # H_
 193 1 5   0.175710  20.555911   0.729689  12.117600   # H_
 194 1 5   0.149921   0.714992  20.036124  12.820379   # H_
 195 1 3  -0.041872   1.464967   1.175162  13.618172   # C_3
 196 1 5   0.010114   1.571574   1.017425  14.696870   # H_
 197 1 5   0.025837   1.385271   2.267522  13.531644   # H_
 198 1 5   0.004944   2.383858   0.814561  13.117636   # H_
 199 1 3   0.542248  17.520819  10.350200   7.170619   # C_3
 200 1 2  -0.740716  17.171810  10.350200   8.377659   # O_3
 201 1 2  -0.692651  18.727859  10.350200   6.821610   # O_3
 202 1 3  -0.177730  16.456818  10.350200   6.106618   # C_3
 203 1 3   0.102549  16.883867  10.350200   4.812636   # C_3
 204 1 4  -0.131051  18.042676   9.382870   4.487433   # N_3
 205 1 5   0.038869  16.119815  10.350200   2.701609   # H_
 206 1 3  -0.021376  15.887971  10.350200   3.817568   # C_3
 207 1 3  -0.127790  14.593989  10.350200   4.243582   # C_3
 208 1 3  -0.000947  14.167768  10.350200   5.537564   # C_3
 209 1 3   0.027391  15.162836  10.350200   6.533667   # C_3
 210 1 5   0.025828  14.930785  10.350200   7.649626   # H_
 211 1 5   0.033991  13.051809  10.350200   5.769615   # H_
 212 1 2  -0.660351  12.322948  10.350200   3.528590   # O_3
 213 1 3   0.539733  13.529988  10.350200   3.179581   # C_3
 214 1 2  -0.665911  13.878997  10.350200   1.972541   # O_3
 215 1 5   0.100105  17.718714   8.400222   4.381861   # H_
 216 1 3  -0.071776  18.850612   9.743471   3.382652   # C_3
 217 1 5   0.041400  18.338277  10.329707   2.597693   # H_
 218 1 5   0.075408  19.275798   8.815679   2.947944   # H_
 219 1 3   0.134919  19.927240  10.510214   4.013601   # C_3
 220 1 5   0.033886  19.505366  11.368039   4.605425   # H_
 221 1 3  -0.362478   0.113852  10.987358   2.958501   # C_3
 222 1 5   0.036473  20.432744   9.868709   4.738529   # H_
 223 1 5   0.185836  20.265071  11.775216   2.420084   # H_
 224 1 5   0.056838   0.361429  10.150027   2.294432   # H_
 225 1 3  -0.054900   1.348217  11.485824   3.628573   # C_3
 226 1 5   0.028030   1.373679  11.392258   4.725073   # H_
 227 1 5   0.029518   1.578820  12.511736   3.405009   # H_
 228 1 5   0.040724   2.100677  10.867917   3.203801   # H_
 229 1 3   0.541254   7.170619   0.000000   7.170619   # C_3
 230 1 2  -0.706885   6.821610   0.000000   8.377659   # O_3
 231 1 2  -0.700177   8.377659   0.000000   6.821610   # O_3
 232 1 3  -0.174586   6.106618   0.000000   6.106618   # C_3
 233 1 3   0.019604   6.533667   0.000000   4.812636   # C_3
 234 1 4  -0.106191   7.698686  19.719822   4.527177   # N_3
 235 1 5   0.000922   5.769615   0.000000   2.701609   # H_
 236 1 3  -0.013144   5.537564   0.000000   3.817568   # C_3
 237 1 3  -0.158493   4.243582   0.000000   4.243582   # C_3
 238 1 3  -0.004350   3.817568   0.000000   5.537564   # C_3
 239 1 3  -0.000610   4.812636   0.000000   6.533667   # C_3
 240 1 5  -0.002835   4.580585   0.000000   7.649626   # H_
 241 1 5  -0.000089   2.701609   0.000000   5.769615   # H_
 242 1 2  -0.701620   1.972748   0.000000   3.528590   # O_3
 243 1 3   0.543347   3.179581   0.000000   3.179581   # C_3
 244 1 2  -0.710316   3.528590   0.000000   1.972541   # O_3
 245 1 5   0.103491   7.329391  18.745247   4.485570   # H_
 246 1 3   0.185381   8.493995  20.009835   3.360089   # C_3
 247 1 5   0.030989   7.867187  20.303780   2.473698   # H_
 248 1 5  -0.006910   9.065740  19.088460   3.105060   # H_
 249 1 3  -0.416487   9.437726   0.399104   3.793348   # C_3
 250 1 5   0.115315   8.895169   1.191308   4.334871   # H_
 251 1 3   0.097576  10.206539   0.966088   2.649858   # C_3
 252 1 5   0.186545  10.073436  20.553841   4.509582   # H_
 253 1 5  -0.017837   9.682612   1.880631   2.261105   # H_
 254 1 5  -0.071339  10.244628   0.203899   1.832813   # H_
 255 1 3  -0.237311  11.598848   1.254237   3.159502   # C_3
 256 1 5   0.065861  11.745407   1.309300   4.251862   # H_
 257 1 5   0.077250  11.895278   2.227984   2.759156   # H_
 258 1 5   0.041155  12.143890   0.391445   2.848996   # H_
 259 1 3   0.550594   7.170619  10.350200  17.520819   # C_3
 260 1 2  -0.630693   6.821610  10.350200  18.727859   # O_3
 261 1 2  -0.655185   8.377659  10.350200  17.171810   # O_3
 262 1 3  -0.178462   6.106618  10.350200  16.456818   # C_3
 263 1 3   0.103724   6.533667  10.350200  15.162836   # C_3
 264 1 4  -0.149702   7.961374   9.878852  14.835977   # N_3
 265 1 5   0.040723   5.769615  10.350200  13.051809   # H_
 266 1 3  -0.021619   5.537564  10.350200  14.167768   # C_3
 267 1 3  -0.131557   4.243582  10.350200  14.593782   # C_3
 268 1 3   0.001094   3.817568  10.350200  15.887764   # C_3
 269 1 3   0.030981   4.812636  10.350200  16.883867   # C_3
 270 1 5   0.031435   4.580585  10.350200  17.999826   # H_
 271 1 5   0.031067   2.701609  10.350200  16.119815   # H_
 272 1 2  -0.752403   1.972748  10.350200  13.878790   # O_3
 273 1 3   0.532085   3.179581  10.350200  13.529781   # C_3
 274 1 2  -0.745685   3.528590  10.350200  12.322741   # O_3
 275 1 5   0.094507   8.073777   8.971139  15.332372   # H_
 276 1 3  -0.014362   8.466257   9.639969  13.464161   # C_3
 277 1 5   0.025639   7.812124  10.054391  12.703421   # H_
 278 1 5   0.025996   8.554647   8.531877  13.267507   # H_
 279 1 3  -0.101593   9.849664  10.270917  13.259641   # C_3
 280 1 5   0.049648   9.934950  11.046975  14.033008   # H_
 281 1 3  -0.027339  10.087305  10.921324  11.886170   # C_3
 282 1 5   0.043979  10.626757   9.541435  13.411582   # H_
 283 1 5   0.027792   9.461946  11.808750  11.900246   # H_
 284 1 5   0.021920   9.823168  10.223307  11.050702   # H_
 285 1 3  -0.162356  11.454566  11.579390  11.716633   # C_3
 286 1 5   0.061920  11.547718  12.446944  12.396435   # H_
 287 1 5   0.051816  11.552479  11.928605  10.661948   # H_
 288 1 5   0.057627  12.233522  10.850943  11.971455   # H_
 289 1 3   0.535032  17.520819   3.179581   0.000000   # C_3
 290 1 2  -0.723350  18.727859   3.528590   0.000000   # O_3
 291 1 2  -0.793620  17.171810   1.972541   0.000000   # O_3
 292 1 3  -0.170928  16.456818   4.243582   0.000000   # C_3
 293 1 3   0.032927  15.162836   3.816533   0.000000   # C_3
 294 1 4  -0.093805  14.952520   2.745494  19.492118   # N_3
 295 1 5   0.011813  13.051809   4.580585   0.000000   # H_
 296 1 3  -0.010181  14.167768   4.812636   0.000000   # C_3
 297 1 3  -0.156884  14.593782   6.106618   0.000000   # C_3
 298 1 3   0.005932  15.887764   6.532632   0.000000   # C_3
 299 1 3   0.014078  16.883867   5.537564   0.000000   # C_3
 300 1 5   0.040517  17.999826   5.769615   0.000000   # H_
 301 1 5   0.024109  16.119815   7.648591   0.000000   # H_
 302 1 2  -0.696995  13.878790   8.377452   0.000000   # O_3
 303 1 3   0.539730  13.529781   7.170619   0.000000   # C_3
 304 1 2  -0.702112  12.322741   6.821610   0.000000   # O_3
 305 1 5   0.093522  15.299873   1.765537  19.544490   # H_
 306 1 3  -0.006047  15.476240   3.219740  18.179298   # C_3
 307 1 5   0.031358  15.631700   2.344734  17.533653   # H_
 308 1 5   0.059576  16.474413   3.673700  18.295428   # H_
 309 1 3  -0.085458  14.498767   4.229713  17.492666   # C_3
 310 1 5   0.085598  14.037769   4.971822  18.190476   # H_
 311 1 3  -0.016016  13.422967   3.428814  16.794028   # C_3
 312 1 5   0.047178  15.038841   4.803942  16.705430   # H_
 313 1 5   0.032411  12.712323   4.184172  16.480416   # H_
 314 1 5   0.024324  13.878997   2.929935  15.883831   # H_
 315 1 3  -0.177581  12.797608   2.374336  17.746453   # C_3
 316 1 5   0.087032  12.522914   2.865349  18.686044   # H_
 317 1 5   0.065908  13.443047   1.561845  17.938553   # H_
 318 1 5   0.053866  11.908940   1.928656  17.297668   # H_
 319 1 3   0.548944  17.520819  13.529781  10.350200   # C_3
 320 1 2  -0.698324  18.727859  13.878790  10.350200   # O_3
 321 1 2  -0.737282  17.171810  12.322741  10.350200   # O_3
 322 1 3  -0.176045  16.456818  14.593782  10.350200   # C_3
 323 1 3   0.114122  15.162836  14.166733  10.350200   # C_3
 324 1 4  -0.148294  14.862059  13.101904   9.308556   # N_3
 325 1 5   0.045223  13.051809  14.930785  10.350200   # H_
 326 1 3  -0.020025  14.167768  15.162629  10.350200   # C_3
 327 1 3  -0.113067  14.593782  16.456611  10.350200   # C_3
 328 1 3   0.008160  15.887764  16.882832  10.350200   # C_3
 329 1 3   0.046412  16.883867  15.887764  10.350200   # C_3
 330 1 5   0.061601  17.999826  16.119815  10.350200   # H_
 331 1 5   0.068754  16.119815  17.998791  10.350200   # H_
 332 1 2  -0.604663  13.878790  18.727652  10.350200   # O_3
 333 1 3   0.529988  13.529781  17.520612  10.350200   # C_3
 334 1 2  -0.653032  12.322741  17.171603  10.350200   # O_3
 335 1 5   0.077433  15.070512  12.112632   9.592151   # H_
 336 1 3  -0.018082  15.423868  13.420690   7.937775   # C_3
 337 1 5   0.033387  15.678897  12.504698   7.438689   # H_
 338 1 5   0.033949  16.341103  14.041702   7.974208   # H_
 339 1 3  -0.085892  14.475583  14.251190   7.042276   # C_3
 340 1 5   0.056628  14.264025  15.179189   7.588767   # H_
 341 1 3  -0.028213  13.169801  13.589399   6.679398   # C_3
 342 1 5   0.039161  15.020417  14.520296   6.107239   # H_
 343 1 5   0.035892  12.550860  14.448465   6.512346   # H_
 344 1 5   0.035418  13.341822  13.065264   5.720349   # H_
 345 1 3  -0.161177  12.603232  12.637594   7.778589   # C_3
 346 1 5   0.061653  12.490414  13.189881   8.735983   # H_
 347 1 5   0.060860  13.230661  11.751203   7.916661   # H_
 348 1 5   0.055870  11.649564  12.271197   7.498099   # H_
 349 1 3   0.562355   7.170619   3.179581  10.350200   # C_3
 350 1 2  -0.666171   8.377659   3.528590  10.350200   # O_3
 351 1 2  -0.672202   6.821610   1.972541  10.350200   # O_3
 352 1 3  -0.186208   6.106618   4.243582  10.350200   # C_3
 353 1 3   0.112448   4.812636   3.816533  10.350200   # C_3
 354 1 4  -0.150245   4.505856   2.706370   9.366103   # N_3
 355 1 5   0.047014   2.701609   4.580585  10.350200   # H_
 356 1 3  -0.024218   3.817568   4.812636  10.350200   # C_3
 357 1 3  -0.123802   4.243582   6.106618  10.350200   # C_3
 358 1 3  -0.001361   5.537564   6.532632  10.350200   # C_3
 359 1 3   0.037754   6.533667   5.537564  10.350200   # C_3
 360 1 5   0.027571   7.649626   5.769615  10.350200   # H_
 361 1 5   0.036482   5.769615   7.648591  10.350200   # H_
 362 1 2  -0.659701   3.528590   8.377452  10.350200   # O_3
 363 1 3   0.536534   3.179581   7.170619  10.350200   # C_3
 364 1 2  -0.657528   1.972541   6.821610  10.350200   # O_3
 365 1 5   0.067364   4.668561   1.751875   9.741194   # H_
 366 1 3  -0.013349   5.132871   3.002800   8.055768   # C_3
 367 1 5   0.041811   5.369477   2.089498   7.533083   # H_
 368 1 5   0.038791   6.091714   3.546600   8.103793   # H_
 369 1 3  -0.085150   4.277324   3.897264   7.137498   # C_3
 370 1 5   0.052635   3.586551   4.525314   7.738431   # H_
 371 1 3  -0.027500   3.558192   3.102576   6.094612   # C_3
 372 1 5   0.038469   4.973892   4.563196   6.558922   # H_
 373 1 5   0.032473   3.134455   3.832886   5.394938   # H_
 374 1 5   0.038002   4.288502   2.487567   5.573376   # H_
 375 1 3  -0.158273   2.404351   2.272076   6.653109   # C_3
 376 1 5   0.050687   1.781890   2.947530   7.200013   # H_
 377 1 5   0.035443   2.734109   1.459585   7.333945   # H_
 378 1 5   0.054592   1.862415   1.843992   5.808325   # H_
 379 1 3   0.546699   7.170619  13.529781   0.000000   # C_3
 380 1 2  -0.701475   8.377659  13.878790   0.000000   # O_3
 381 1 2  -0.719057   6.821610  12.322741   0.000000   # O_3
 382 1 3  -0.184196   6.106618  14.593782   0.000000   # C_3
 383 1 3   0.034587   4.812636  14.166733   0.000000   # C_3
 384 1 4  -0.101804   4.526556  13.166903  19.552563   # N_3
 385 1 5   0.012552   2.701609  14.930785   0.000000   # H_
 386 1 3  -0.019221   3.817568  15.162629   0.000000   # C_3
 387 1 3  -0.147370   4.243582  16.456611   0.000000   # C_3
 388 1 3  -0.001889   5.537564  16.882832   0.000000   # C_3
 389 1 3   0.018553   6.533667  15.887764   0.000000   # C_3
 390 1 5   0.018276   7.649626  16.119815   0.000000   # H_
 391 1 5   0.040007   5.769615  17.998791   0.000000   # H_
 392 1 2  -0.722680   3.528590  18.727652   0.000000   # O_3
 393 1 3   0.527304   3.179581  17.520612   0.000000   # C_3
 394 1 2  -0.787412   1.972541  17.171603   0.000000   # O_3
 395 1 5   0.113485   4.785932  12.182599  19.728102   # H_
 396 1 3   0.000842   5.176549  13.601612  18.248645   # C_3
 397 1 5   0.036705   5.344015  12.707148  17.627633   # H_
 398 1 5   0.066813   6.171410  14.074616  18.356701   # H_
 399 1 3  -0.087944   4.365093  14.621107  17.452921   # C_3
 400 1 5   0.078317   3.792727  15.302564  18.127133   # H_
 401 1 3  -0.028854   3.424881  13.893901  16.481658   # C_3
 402 1 5   0.048946   5.065802  15.234873  16.853231   # H_
 403 1 5   0.029922   2.827054  14.683001  15.962906   # H_
 404 1 5   0.027182   4.040718  13.381360  15.731269   # H_
 405 1 3  -0.153130   2.530831  12.841286  17.236809   # C_3
 406 1 5   0.054747   1.886634  13.394194  17.909572   # H_
 407 1 5   0.058726   3.076493  12.063572  17.824286   # H_
 408 1 5   0.049860   1.931140  12.290241  16.492009   # H_
 409 1 3   0.536857  17.520819  17.520819   0.000000   # C_3
 410 1 2  -0.665296  18.727859  17.171810   0.000000   # O_3
 411 1 2  -0.655198  17.171810  18.727859   0.000000   # O_3
 412 1 3  -0.165987  16.456818  16.456818   0.000000   # C_3
 413 1 3   0.032326  15.162836  16.883867   0.000000   # C_3
 414 1 4  -0.094815  14.833700  18.083455  19.773643   # N_3
 415 1 5   0.011005  13.051809  16.119815   0.000000   # H_
 416 1 3  -0.015708  14.167768  15.887971   0.000000   # C_3
 417 1 3  -0.153831  14.593782  14.593989   0.000000   # C_3
 418 1 3  -0.003845  15.887764  14.167768   0.000000   # C_3
 419 1 3   0.008735  16.883867  15.162836   0.000000   # C_3
 420 1 5   0.008723  17.999826  14.930785   0.000000   # H_
 421 1 5   0.015931  16.119815  13.051809   0.000000   # H_
 422 1 2  -0.775847  13.878790  12.322948   0.000000   # O_3
 423 1 3   0.530368  13.529781  13.529988   0.000000   # C_3
 424 1 2  -0.776274  12.322741  13.878997   0.000000   # O_3
 425 1 5   0.124386  14.950036  17.815178  18.784992   # H_
 426 1 3   0.080875  13.628936  18.833017  19.869693   # C_3
 427 1 5   0.068206  12.780634  18.213247  20.212285   # H_
 428 1 5   0.057462  13.375563  19.233984  18.864275   # H_
 429 1 3  -0.127695  13.985397  19.949803   0.098534   # C_3
 430 1 5   0.078298  14.392988  19.551735   1.036676   # H_
 431 1 3  -0.402820  12.877719   0.256271   0.320649   # C_3
 432 1 5   0.176231  14.815483  20.476422  20.262587   # H_
 433 1 5   0.181609  12.108285  20.441645   0.925929   # H_
 434 1 5   0.138172  12.427485   0.546905  20.024946   # H_
 435 1 3  -0.045670  13.493970   1.491671   0.941247   # C_3
 436 1 5   0.004481  14.499595   1.597657   0.650407   # H_
 437 1 5   0.028154  13.672821   1.418598   2.000901   # H_
 438 1 5   0.005290  12.888069   2.397934   0.703400   # H_
 439 1 3   0.546697  17.520819   7.170619  10.350200   # C_3
 440 1 2  -0.609843  18.727859   6.821610  10.350200   # O_3
 441 1 2  -0.655501  17.171810   8.377659  10.350200   # O_3
 442 1 3  -0.177528  16.456818   6.106618  10.350200   # C_3
 443 1 3   0.110468  15.162836   6.533667  10.350200   # C_3
 444 1 4  -0.146461  14.802442   7.823095   9.711386   # N_3
 445 1 5   0.042696  13.051809   5.769615  10.350200   # H_
 446 1 3  -0.025293  14.167768   5.537564  10.350200   # C_3
 447 1 3  -0.131811  14.593782   4.243582  10.350200   # C_3
 448 1 3   0.001163  15.887764   3.817568  10.350200   # C_3
 449 1 3   0.028881  16.883867   4.812636  10.350200   # C_3
 450 1 5   0.037590  17.999826   4.580585  10.350200   # H_
 451 1 5   0.030638  16.119815   2.701609  10.350200   # H_
 452 1 2  -0.752755  13.878790   1.972748  10.350200   # O_3
 453 1 3   0.531416  13.529781   3.179581  10.350200   # C_3
 454 1 2  -0.745423  12.322741   3.528590  10.350200   # O_3
 455 1 5   0.073733  14.641186   8.698101  10.247940   # H_
 456 1 3  -0.017848  14.588814   7.614642   8.264221   # C_3
 457 1 5   0.045900  14.890626   6.583348   7.982074   # H_
 458 1 5   0.047870  15.266338   8.255734   7.696202   # H_
 459 1 3  -0.090301  13.097143   7.546952   7.774035   # C_3
 460 1 5   0.049892  13.031316   8.057217   6.785591   # H_
 461 1 3  -0.028318  12.085308   8.216403   8.772209   # C_3
 462 1 5   0.052041  12.785602   6.472808   7.677571   # H_
 463 1 5   0.026273  12.522086   9.216439   9.130532   # H_
 464 1 5   0.028166  12.035834   7.454421   9.571658   # H_
 465 1 3  -0.164653  10.561344   8.484473   8.397738   # C_3
 466 1 5   0.053830  10.455151   8.973209   7.407431   # H_
 467 1 5   0.050505  10.055219   9.137778   9.145437   # H_
 468 1 5   0.057992  10.015268   7.561442   8.378073   # H_
 469 1 3   0.541123   7.170619  17.520819  10.350200   # C_3
 470 1 2  -0.737867   8.377659  17.171810  10.350200   # O_3
 471 1 2  -0.683186   6.821610  18.727859  10.350200   # O_3
 472 1 3  -0.177640   6.106618  16.456818  10.350200   # C_3
 473 1 3   0.110914   4.812636  16.883867  10.350200   # C_3
 474 1 4  -0.127704   4.416016  18.241606   9.883613   # N_3
 475 1 5   0.038628   2.701609  16.119815  10.350200   # H_
 476 1 3  -0.025045   3.817568  15.887971  10.350200   # C_3
 477 1 3  -0.133048   4.243582  14.593989  10.350200   # C_3
 478 1 3   0.000390   5.537564  14.167768  10.350200   # C_3
 479 1 3   0.026910   6.533667  15.162836  10.350200   # C_3
 480 1 5   0.029436   7.649626  14.930785  10.350200   # H_
 481 1 5   0.031277   5.769615  13.051809  10.350200   # H_
 482 1 2  -0.746517   3.528590  12.322948  10.350200   # O_3
 483 1 3   0.533788   3.179581  13.529988  10.350200   # C_3
 484 1 2  -0.762522   1.972541  13.878997  10.350200   # O_3
 485 1 5   0.078373   3.647410  18.475935  10.580388   # H_
 486 1 3  -0.024910   3.788173  18.346351   8.525046   # C_3
 487 1 5   0.071593   4.516827  18.156735   7.717109   # H_
 488 1 5   0.072819   3.516584  19.390686   8.497100   # H_