 (written by mofun)

1152 atoms
0 bonds
0 angles
0 dihedrals
0 impropers

5 atom types
   0.000000  20.700400 xlo xhi
   0.000000  20.700400 ylo yhi
   0.000000  20.700400 zlo zhi

Masses

 1 91.2240   # Zr3+4
 2 15.9994   # O_3
 3 12.0107   # C_3
 4 14.0067   # N_3
 5 1.0079   # H_

Pair Coeffs

 1   0.069000   2.783168 # Zr3+4
 2   0.060000   3.118146 # O_3
 3   0.105000   3.430851 # C_3
 4   0.069000   3.260689 # N_3
 5   0.044000   2.571134 # H_

Atoms

 1 1 1   3.173420   2.481771   0.000000   0.000000   # Zr3+4
 2 1 1   3.192290   2.481771  10.350200  10.350200   # Zr3+4
 3 1 1   3.181580  12.831971   0.000000  10.350200   # Zr3+4
 4 1 1   3.182850  12.831971  10.350200   0.000000   # Zr3+4
 5 1 1   3.172870  18.218629   0.000000   0.000000   # Zr3+4
 6 1 1   3.192100  18.218629  10.350200  10.350200   # Zr3+4
 7 1 1   3.182100   7.868429   0.000000  10.350200   # Zr3+4
 8 1 1   3.181060   7.868429  10.350200   0.000000   # Zr3+4
 9 1 1   3.173520   0.000000   2.481771   0.000000   # Zr3+4
 10 1 1   3.147130   0.000000  12.831971  10.350200   # Zr3+4
 11 1 1   3.192620  10.350200   2.481771  10.350200   # Zr3+4
 12 1 1   3.184920  10.350200  12.831971   0.000000   # Zr3+4
 13 1 1   3.171610   0.000000  18.218629   0.000000   # Zr3+4
 14 1 1   3.214100   0.000000   7.868429  10.350200   # Zr3+4
 15 1 1   3.192280  10.350200  18.218629  10.350200   # Zr3+4
 16 1 1   3.181180  10.350200   7.868429   0.000000   # Zr3+4
 17 1 1   3.204990   0.000000   0.000000   2.481771   # Zr3+4
 18 1 1   3.179780   0.000000  10.350200  12.831971   # Zr3+4
 19 1 1   3.147860  10.350200   0.000000  12.831971   # Zr3+4
 20 1 1   3.191720  10.350200  10.350200   2.481771   # Zr3+4
 21 1 1   3.140920   0.000000   0.000000  18.218629   # Zr3+4
 22 1 1   3.181150   0.000000  10.350200   7.868429   # Zr3+4
 23 1 1   3.214490  10.350200   0.000000   7.868429   # Zr3+4
 24 1 1   3.192820  10.350200  10.350200  18.218629   # Zr3+4
 25 1 2  -1.307630   1.161292   9.188908   9.188908   # O_3
 26 1 2  -1.238060  11.511492  19.539108   9.188908   # O_3
 27 1 2  -1.344040  11.511492   9.188908  19.539108   # O_3
 28 1 2  -1.305940   9.188908   1.161292   9.188908   # O_3
 29 1 2  -1.343430   9.188908  11.511492  19.539108   # O_3
 30 1 2  -1.205610  19.539108  19.539108   1.161292   # O_3
 31 1 2  -1.233650  19.539108   9.188908  11.511492   # O_3
 32 1 2  -1.348410   1.161292   1.161292   1.161292   # O_3
 33 1 2  -1.413630  11.511492  11.511492   1.161292   # O_3
 34 1 2  -1.358580  19.539108   1.161292   1.161292   # O_3
 35 1 2  -1.459520  19.539108  11.511492  11.511492   # O_3
 36 1 2  -1.529710   9.188908   1.161292  11.511492   # O_3
 37 1 2  -1.418180   9.188908  11.511492   1.161292   # O_3
 38 1 2  -1.365400   1.161292  19.539108   1.161292   # O_3
 39 1 2  -1.401980   1.161292   9.188908  11.511492   # O_3
 40 1 2  -1.463410  11.511492  19.539108  11.511492   # O_3
 41 1 2  -1.418050  11.511492   9.188908   1.161292   # O_3
 42 1 2  -1.355310  19.539108  19.539108  19.539108   # O_3
 43 1 2  -1.321890  19.539108   9.188908   9.188908   # O_3
 44 1 2  -1.326160   9.188908  19.539108   9.188908   # O_3
 45 1 2  -1.350960   9.188908   9.188908  19.539108   # O_3
 46 1 2  -1.490440   1.161292   1.161292  19.539108   # O_3
 47 1 2  -1.531910   1.161292  11.511492   9.188908   # O_3
 48 1 2  -1.399540  11.511492   1.161292   9.188908   # O_3
 49 1 3   0.529836   3.179581   0.000000  17.520819   # C_3
 50 1 2  -0.743348   3.528590   0.000000  18.727859   # O_3
 51 1 2  -0.781273   1.972541   0.000000  17.171810   # O_3
 52 1 3  -0.175050   4.243582   0.000000  16.456818   # C_3
 53 1 3   0.041098   3.816533   0.000000  15.162836   # C_3
 54 1 4  -0.173297   2.579063  19.849200  14.663335   # N_3
 55 1 5   0.013089   4.580585   0.000000  13.051809   # H_
 56 1 3  -0.005608   4.812636   0.000000  14.167768   # C_3
 57 1 3  -0.188170   6.106618   0.000000  14.593782   # C_3
 58 1 3   0.067120   6.532632   0.000000  15.887764   # C_3
 59 1 3  -0.020247   5.537564   0.000000  16.883867   # C_3
 60 1 5   0.019348   5.769615   0.000000  17.999826   # H_
 61 1 4  -0.161871   7.784799   0.896327  16.115468   # N_3
 62 1 2  -0.781387   8.377452   0.000000  13.878790   # O_3
 63 1 3   0.541701   7.170619   0.000000  13.529781   # C_3
 64 1 2  -0.780933   6.821610   0.000000  12.322741   # O_3
 65 1 5   0.122293   2.124068  19.390065  15.432148   # H_
 66 1 3   0.435771   1.589584  20.470833  13.821036   # C_3
 67 1 5  -0.157440   2.130278   0.308229  13.151378   # H_
 68 1 3  -0.236554   0.689944   0.447750  14.726265   # C_3
 69 1 3  -0.610740   0.737762  19.651097  12.859916   # C_3
 70 1 3   0.528394  20.201520  20.408524  12.746064   # C_3
 71 1 5  -0.094459  19.460653  19.753771  12.339922   # H_
 72 1 5  -0.153093  20.032812   0.463068  12.007060   # H_
 73 1 3  -0.337426  20.111267   0.067069  14.173150   # C_3
 74 1 5   0.064159   1.344077   1.425223  14.799337   # H_
 75 1 5  -0.041237   0.552080   0.138693  15.721954   # H_
 76 1 5   0.211115  20.003625  19.852719  14.705357   # H_
 77 1 5   0.120928  19.428360   0.901295  14.393195   # H_
 78 1 5   0.142178   0.423323  18.680869  13.097764   # H_
 79 1 5   0.210827   1.200416  19.510955  12.031486   # H_
 80 1 3   0.066385   9.001362   0.408419  16.764840   # C_3
 81 1 5   0.096610   7.898031   1.742146  15.498803   # H_
 82 1 3  -0.429205  10.300312   0.276971  16.072619   # C_3
 83 1 5   0.102578  10.208609  20.294465  15.261577   # H_
 84 1 3   0.292123  11.117771  20.339799  17.134342   # C_3
 85 1 5   0.130013  10.917391   0.982648  15.697320   # H_
 86 1 3  -0.234356  10.168243  19.570986  17.905639   # C_3
 87 1 5  -0.088958  11.550823   0.419183  17.827598   # H_
 88 1 5  -0.007277  11.817858  19.781302  16.511674   # H_
 89 1 3   0.032784   8.858529  19.693533  17.145520   # C_3
 90 1 5   0.111487  10.062050  20.072764  18.888287   # H_
 91 1 5   0.089177  10.575834  18.658306  18.030462   # H_
 92 1 5   0.034171   8.012504  19.331069  17.677728   # H_
 93 1 5   0.047293   8.788562  19.129240  16.217521   # H_
 94 1 5   0.000533   9.291996   1.056341  17.588509   # H_
 95 1 3   0.547855   3.179581  10.350200   7.170619   # C_3
 96 1 2  -0.649582   3.528590  10.350200   8.377659   # O_3
 97 1 2  -0.675815   1.972541  10.350200   6.821610   # O_3
 98 1 3  -0.169535   4.243582  10.350200   6.106618   # C_3
 99 1 3   0.095837   3.816533  10.350200   4.812636   # C_3
 100 1 4  -0.180545   2.630814   9.479541   4.450172   # N_3
 101 1 5   0.045796   4.580585  10.350200   2.701609   # H_
 102 1 3  -0.011753   4.812636  10.350200   3.817568   # C_3
 103 1 3  -0.169388   6.106618  10.350200   4.243582   # C_3
 104 1 3   0.094249   6.532632  10.350200   5.537564   # C_3
 105 1 3  -0.011266   5.537564  10.350200   6.533667   # C_3
 106 1 5   0.043460   5.769615  10.350200   7.649626   # H_
 107 1 4  -0.160200   7.821232  11.122118   5.782657   # N_3
 108 1 2  -0.732750   8.377452  10.350200   3.528590   # O_3
 109 1 3   0.537822   7.170619  10.350200   3.179581   # C_3
 110 1 2  -0.748048   6.821610  10.350200   1.972541   # O_3
 111 1 5   0.088756   1.951427   9.034897   5.120451   # H_
 112 1 3   0.162906   1.931347  10.147750   3.455104   # C_3
 113 1 5  -0.026439   2.636817  10.398639   2.800557   # H_
 114 1 3  -0.326800   1.145353  11.183391   4.136975   # C_3
 115 1 3  -0.265766   0.974989   9.429860   2.462313   # C_3
 116 1 3   0.058352  20.375611  10.049009   2.637645   # C_3
 117 1 5   0.012271  19.722513   9.219958   2.373715   # H_
 118 1 5   0.013515  20.076076  10.839764   1.851237   # H_
 119 1 3   0.063189  20.473317  10.597363   4.020432   # C_3
 120 1 5   0.103114   1.261896  11.947029   3.521552   # H_
 121 1 5   0.117124   1.569297  11.525155   5.050691   # H_
 122 1 5   0.048843  20.577647   9.735812   4.751984   # H_
 123 1 5   0.026879  19.667036  11.237626   4.186449   # H_
 124 1 5   0.072228   0.887219   8.423821   2.565194   # H_
 125 1 5   0.024159   1.075179   9.521356   1.373472   # H_
 126 1 3   0.079399   8.968655  10.629862   6.435961   # C_3
 127 1 5   0.087426   7.875053  12.076613   5.347120   # H_
 128 1 3  -0.092919  10.349165  10.604608   5.771686   # C_3
 129 1 5  -0.042566  10.285615   9.992083   4.921520   # H_
 130 1 3  -0.051573  11.098312   9.968485   6.827199   # C_3
 131 1 5   0.054601  10.942438  11.385013   5.458902   # H_
 132 1 3  -0.062694  10.090824   9.158685   7.574483   # C_3
 133 1 5   0.031893  11.523913  10.743508   7.511968   # H_
 134 1 5   0.050569  11.867125   9.461946   6.262699   # H_
 135 1 3  -0.114888   8.812160   9.210643   6.754541   # C_3
 136 1 5   0.030402   9.975730   9.627549   8.544297   # H_
 137 1 5   0.041911  10.558032   8.263186   7.662874   # H_
 138 1 5   0.051371   7.920387   8.864325   7.200220   # H_
 139 1 5   0.062952   8.788562   8.741572   5.753055   # H_
 140 1 5   0.002938   9.156201  11.293103   7.318212   # H_
 141 1 3   0.533299  13.529781   0.000000   7.170619   # C_3
 142 1 2  -0.689370  13.878790   0.000000   8.377659   # O_3
 143 1 2  -0.692467  12.322741   0.000000   6.821610   # O_3
 144 1 3  -0.167890  14.593782   0.000000   6.106618   # C_3
 145 1 3   0.030852  14.166733   0.000000   4.812636   # C_3
 146 1 4  -0.133174  13.011236  19.713612   4.485777   # N_3
 147 1 5   0.016280  14.930785   0.000000   2.701609   # H_
 148 1 3  -0.017033  15.162629   0.000000   3.817568   # C_3
 149 1 3  -0.173043  16.456611   0.000000   4.243582   # C_3
 150 1 3   0.065245  16.882832   0.000000   5.537564   # C_3
 151 1 3  -0.019320  15.887764   0.000000   6.533667   # C_3
 152 1 5   0.016861  16.119815   0.000000   7.649626   # H_
 153 1 4  -0.147716  18.080557   0.953046   5.787418   # N_3
 154 1 2  -0.642753  18.727652   0.000000   3.528590   # O_3
 155 1 3   0.531344  17.520612   0.000000   3.179581   # C_3
 156 1 2  -0.691773  17.171603   0.000000   1.972541   # O_3
 157 1 5   0.108663  12.413409  19.220114   5.239478   # H_
 158 1 3   0.177447  12.216548  20.313096   3.445582   # C_3
 159 1 5   0.031772  12.886413  20.650305   2.711545   # H_
 160 1 3  -0.114197  11.411510   0.629085   4.062868   # C_3
 161 1 3  -0.286128  11.319393  19.577403   2.433539   # C_3
 162 1 3   0.302329  10.095999  20.393620   2.323620   # C_3
 163 1 5  -0.048673   9.204847  19.755013   2.102747   # H_
 164 1 5  -0.137996  10.062050   0.319821   1.499123   # H_
 165 1 3  -0.354661  10.061222   0.309264   3.727314   # C_3
 166 1 5   0.046020  11.848909   1.492913   3.746358   # H_
 167 1 5   0.020410  11.358102   0.634467   5.159782   # H_
 168 1 5   0.167152   9.845731  20.236090   4.411048   # H_
 169 1 5   0.086709   9.256598   1.077663   3.853172   # H_
 170 1 5   0.097571  10.873299  18.763671   2.783169   # H_
 171 1 5   0.087326  11.738369  19.355702   1.471177   # H_
 172 1 3  -0.014839  19.311610   0.420839   6.289196   # C_3
 173 1 5   0.103236  18.142245   1.729104   5.077394   # H_
 174 1 3   0.038268  20.547010   0.347353   5.478154   # C_3
 175 1 5  -0.022092  20.447855  20.498571   4.602527   # H_
 176 1 3  -0.169183   0.668830  20.282666   6.379863   # C_3
 177 1 5  -0.033335   0.576920   1.024049   5.270115   # H_
 178 1 3   0.233223  20.512026  19.659170   7.378451   # C_3
 179 1 5  -0.002751   1.283011   0.183613   6.987213   # H_
 180 1 5   0.098035   1.241610  19.626256   5.765889   # H_
 181 1 3  -0.102361  19.170847  19.714440   6.667185   # C_3
 182 1 5   0.031870  20.560879  20.272523   8.300860   # H_
 183 1 5  -0.109635   0.182785  18.748145   7.532462   # H_
 184 1 5   0.080237  18.336828  19.397517   7.169170   # H_
 185 1 5   0.114317  19.080594  19.137934   5.707928   # H_
 186 1 5   0.033812  19.659998   1.142455   7.079123   # H_
 187 1 3   0.529359  13.529781  10.350200  17.520819   # C_3
 188 1 2  -0.707249  13.878790  10.350200  18.727859   # O_3
 189 1 2  -0.728199  12.322741  10.350200  17.171810   # O_3
 190 1 3  -0.170429  14.593782  10.350200  16.456818   # C_3
 191 1 3   0.097985  14.166733  10.350200  15.162836   # C_3
 192 1 4  -0.162298  12.982670   9.479955  14.807824   # N_3
 193 1 5   0.041728  14.930785  10.350200  13.051809   # H_
 194 1 3  -0.015282  15.162629  10.350200  14.167768   # C_3
 195 1 3  -0.161647  16.456611  10.350200  14.593782   # C_3
 196 1 3   0.095389  16.882832  10.350200  15.887764   # C_3
 197 1 3  -0.009681  15.887764  10.350200  16.883867   # C_3
 198 1 5   0.043834  16.119815  10.350200  17.999826   # H_
 199 1 4  -0.155149  18.126926  11.187324  16.142793   # N_3
 200 1 2  -0.620276  18.727652  10.350200  13.878790   # O_3
 201 1 3   0.537097  17.520612  10.350200  13.529781   # C_3
 202 1 2  -0.653779  17.171603  10.350200  12.322741   # O_3
 203 1 5   0.105918  12.525191   8.898067  15.521160   # H_
 204 1 3   0.077618  12.194813  10.012783  13.676133   # C_3
 205 1 5  -0.000721  12.590811   9.637278  12.700937   # H_
 206 1 3  -0.123019  12.350687  11.392465  13.812135   # C_3
 207 1 3  -0.113470  10.665260   9.950268  13.817310   # C_3
 208 1 3  -0.011356  10.555755  10.819271  15.077343   # C_3
 209 1 5  -0.079993  10.471297  10.125601  15.863131   # H_
 210 1 5   0.034379   9.541642  11.302832  15.035529   # H_
 211 1 3  -0.050260  11.927156  11.732987  15.093697   # C_3
 212 1 5   0.050800  11.705455  11.782668  13.118464   # H_
 213 1 5   0.049452  13.294418  11.882444  13.773218   # H_
 214 1 5   0.048174  12.569697  11.812890  15.891283   # H_
 215 1 5   0.031340  12.113874  12.775666  15.000338   # H_
 216 1 5   0.049847  10.217924   9.017094  13.649637   # H_
 217 1 5   0.037953  10.176938  10.543956  13.012064   # H_
 218 1 3   0.016452  19.249716  10.727775  16.836670   # C_3
 219 1 5   0.103588  18.317991  12.006232  15.526542   # H_
 220 1 3   0.265278  20.565847  10.603780  16.087316   # C_3
 221 1 5  -0.069027  20.459240   9.895619  15.283519   # H_
 222 1 3  -0.443391   0.681457  10.068054  17.215281   # C_3
 223 1 5  -0.098472   0.452718  11.353962  15.715330   # H_
 224 1 3   0.316118  20.431502   9.231550  17.994030   # C_3
 225 1 5   0.106440   1.069797  10.901245  17.846229   # H_
 226 1 5   0.146339   1.446337   9.536674  16.723232   # H_
 227 1 3  -0.212405  19.119510   9.287855  17.193545   # C_3
 228 1 5  -0.016431  20.396725   9.705383  18.989098   # H_
 229 1 5  -0.121079   0.193342   8.312039  18.046609   # H_
 230 1 5   0.078572  18.227737   9.026823  17.708364   # H_
 231 1 5   0.112537  19.033397   8.679264  16.267823   # H_
 232 1 5   0.035752  19.494602  11.417927  17.670482   # H_
 233 1 3   0.513674  17.520819   0.000000  17.520819   # C_3
 234 1 2  -0.742039  17.171810   0.000000  18.727859   # O_3
 235 1 2  -0.736115  18.727859   0.000000  17.171810   # O_3
 236 1 3  -0.164564  16.456818   0.000000  16.456818   # C_3
 237 1 3   0.022897  16.883867   0.000000  15.162836   # C_3
 238 1 4  -0.115439  17.966912  19.723962  14.793127   # N_3
 239 1 5   0.009127  16.119815   0.000000  13.051809   # H_
 240 1 3  -0.014190  15.887971   0.000000  14.167768   # C_3
 241 1 3  -0.191384  14.593989   0.000000  14.593782   # C_3
 242 1 3   0.061633  14.167768   0.000000  15.887764   # C_3
 243 1 3  -0.030058  15.162836   0.000000  16.883867   # C_3
 244 1 5   0.010882  14.930785   0.000000  17.999826   # H_
 245 1 4  -0.165786  13.095694   1.074351  16.181503   # N_3
 246 1 2  -0.795524  12.322948   0.000000  13.878790   # O_3
 247 1 3   0.535438  13.529988   0.000000  13.529781   # C_3
 248 1 2  -0.778761  13.878997   0.000000  12.322741   # O_3
 249 1 5   0.095715  18.001068  20.048130  13.793712   # H_
 250 1 3   0.114992  17.445055  18.409901  14.385536   # C_3
 251 1 5   0.017261  16.362010  18.364153  14.105460   # H_
 252 1 3  -0.189556  17.721819  17.479418  15.371910   # C_3
 253 1 3  -0.151949  18.225667  17.791580  13.308701   # C_3
 254 1 3  -0.032519  17.816213  16.420799  13.220931   # C_3
 255 1 5   0.060658  18.464343  15.699183  12.689138   # H_
 256 1 5   0.036928  16.836463  16.301151  12.770491   # H_
 257 1 3  -0.030945  17.657027  16.101806  14.639323   # C_3
 258 1 5   0.095190  17.067894  17.574019  16.091663   # H_
 259 1 5   0.123413  18.635535  17.748937  15.824835   # H_
 260 1 5   0.066828  18.399137  15.420763  14.949001   # H_
 261 1 5   0.026521  16.638361  15.632321  14.672858   # H_
 262 1 5   0.088988  19.259859  17.929651  13.533094   # H_
 263 1 5   0.072164  18.051577  18.122165  12.377390   # H_
 264 1 3   0.064601  13.562074   2.059483  17.154214   # C_3
 265 1 5   0.070401  12.929677   1.663898  15.310637   # H_
 266 1 3  -0.113200  12.652084   3.126174  17.240742   # C_3
 267 1 5   0.052636  12.465988   3.411633  16.201582   # H_
 268 1 3  -0.054361  13.295453   4.312100  17.791373   # C_3
 269 1 5   0.051082  11.774181   2.773440  17.730307   # H_
 270 1 3  -0.058241  14.744481   4.218949  17.411106   # C_3
 271 1 5   0.051409  12.819551   5.302614  17.628461   # H_
 272 1 5   0.071007  13.123433   4.068664  18.768225   # H_
 273 1 3  -0.102315  14.753796   2.884808  16.724681   # C_3
 274 1 5   0.065678  15.409378   4.167819  18.264170   # H_
 275 1 5   0.039592  14.986262   5.149224  16.903947   # H_
 276 1 5   0.053192  15.684486   2.480943  17.022146   # H_
 277 1 5   0.044521  14.759799   3.039647  15.627974   # H_
 278 1 5   0.002281  13.647153   1.590826  18.109331   # H_
 279 1 3   0.525820  17.520819  10.350200   7.170619   # C_3
 280 1 2  -0.730282  17.171810  10.350200   8.377659   # O_3
 281 1 2  -0.699937  18.727859  10.350200   6.821610   # O_3
 282 1 3  -0.162045  16.456818  10.350200   6.106618   # C_3
 283 1 3   0.082953  16.883867  10.350200   4.812636   # C_3
 284 1 4  -0.164917  18.015144   9.383698   4.408978   # N_3
 285 1 5   0.035121  16.119815  10.350200   2.701609   # H_
 286 1 3  -0.009207  15.887971  10.350200   3.817568   # C_3
 287 1 3  -0.173533  14.593989  10.350200   4.243582   # C_3
 288 1 3   0.091114  14.167768  10.350200   5.537564   # C_3
 289 1 3  -0.012360  15.162836  10.350200   6.533667   # C_3
 290 1 5   0.039928  14.930785  10.350200   7.649626   # H_
 291 1 4  -0.162048  13.111633  11.433866   5.813500   # N_3
 292 1 2  -0.659301  12.322948  10.350200   3.528590   # O_3
 293 1 3   0.544365  13.529988  10.350200   3.179581   # C_3
 294 1 2  -0.670634  13.878997  10.350200   1.972541   # O_3
 295 1 5   0.083458  18.207244   9.928119   3.648653   # H_
 296 1 3   0.099797  17.502602   8.068395   3.974891   # C_3
 297 1 5   0.007707  16.424939   8.118076   3.672044   # H_
 298 1 3  -0.137575  17.632601   7.171861   5.030611   # C_3
 299 1 3  -0.152695  18.292322   7.319661   2.944425   # C_3
 300 1 3  -0.033528  17.805449   5.883675   2.981479   # C_3
 301 1 5   0.060588  18.419837   4.972443   2.770749   # H_
 302 1 5   0.041525  16.882418   5.777275   2.365228   # H_
 303 1 3  -0.041767  17.438224   5.763405   4.390348   # C_3
 304 1 5   0.065936  16.935618   7.358785   5.769615   # H_
 305 1 5   0.102180  18.622494   7.418195   5.504236   # H_
 306 1 5   0.056561  18.100430   4.993557   4.815948   # H_
 307 1 5   0.028787  16.395338   5.396180   4.452035   # H_
 308 1 5   0.096801  19.348664   7.355680   3.053930   # H_
 309 1 5   0.071587  18.144315   7.654801   2.019324   # H_
 310 1 3   0.045945  13.610306  12.444873   6.758681   # C_3
 311 1 5   0.090579  12.922432  11.936472   4.921727   # H_
 312 1 3  -0.103840  12.617515  13.479893   6.830925   # C_3
 313 1 5   0.056553  12.444459  13.718362   5.804185   # H_
 314 1 3  -0.051430  13.224865  14.672651   7.428339   # C_3
 315 1 5   0.043511  11.750168  13.071268   7.375346   # H_
 316 1 3  -0.071970  14.651122  14.616759   7.077881   # C_3
 317 1 5   0.043246  12.788500  15.651572   7.235825   # H_
 318 1 5   0.048962  13.111012  14.432112   8.417611   # H_
 319 1 3  -0.079035  14.856470  13.258192   6.490196   # C_3
 320 1 5   0.051930  15.255781  14.876549   7.894305   # H_
 321 1 5   0.041818  14.820451  15.306911   6.298304   # H_
 322 1 5   0.038892  15.755695  12.839837   6.973965   # H_
 323 1 5   0.039773  14.910084  13.314704   5.324143   # H_
 324 1 5   0.018102  13.612997  12.032522   7.670326   # H_
 325 1 3   0.532437   7.170619   0.000000   7.170619   # C_3
 326 1 2  -0.702135   6.821610   0.000000   8.377659   # O_3
 327 1 2  -0.688282   8.377659   0.000000   6.821610   # O_3
 328 1 3  -0.169160   6.106618   0.000000   6.106618   # C_3
 329 1 3   0.020524   6.533667   0.000000   4.812636   # C_3
 330 1 4  -0.114447   7.704896  19.741143   4.415188   # N_3
 331 1 5   0.007559   5.769615   0.000000   2.701609   # H_
 332 1 3  -0.011811   5.537564   0.000000   3.817568   # C_3
 333 1 3  -0.185559   4.243582   0.000000   4.243582   # C_3
 334 1 3   0.054188   3.817568   0.000000   5.537564   # C_3
 335 1 3  -0.024807   4.812636   0.000000   6.533667   # C_3
 336 1 5   0.010539   4.580585   0.000000   7.649626   # H_
 337 1 4  -0.162850   2.828710   1.210766   5.741463   # N_3
 338 1 2  -0.695309   1.972748   0.000000   3.528590   # O_3
 339 1 3   0.540936   3.179581   0.000000   3.179581   # C_3
 340 1 2  -0.704503   3.528590   0.000000   1.972541   # O_3
 341 1 5   0.097910   7.864910  20.161155   3.458830   # H_
 342 1 3   0.074049   7.140189  18.435983   3.932869   # C_3
 343 1 5   0.030646   6.113242  18.440123   3.652379   # H_
 344 1 3  -0.149078   7.258802  17.492252   5.015293   # C_3
 345 1 3  -0.119199   7.863254  17.568015   2.888741   # C_3
 346 1 3  -0.060692   7.173931  16.200547   2.964297   # C_3
 347 1 5   0.045513   7.685231  15.359283   2.541595   # H_
 348 1 5   0.048018   6.150503  16.235738   2.617566   # H_
 349 1 3  -0.035360   7.042690  16.064959   4.387243   # C_3
 350 1 5   0.081172   6.704032  17.728858   5.819710   # H_
 351 1 5   0.082751   8.226339  17.648333   5.393696   # H_
 352 1 5   0.038400   7.899687  15.459473   4.693402   # H_
 353 1 5   0.026870   6.162923  15.430492   4.538977   # H_
 354 1 5   0.051372   8.918974  17.698842   2.972577   # H_
 355 1 5   0.066059   7.662460  17.927995   1.954325   # H_
 356 1 3   0.046379   3.331108   2.348253   6.592663   # C_3
 357 1 5   0.095504   2.597486   1.671764   4.851553   # H_
 358 1 3  -0.095865   2.300435   3.307096   6.870049   # C_3
 359 1 5   0.056446   2.111855   3.572061   5.825921   # H_
 360 1 3  -0.063760   2.924760   4.453277   7.493131   # C_3
 361 1 5   0.027120   1.476146   2.830573   7.372861   # H_
 362 1 3  -0.053590   4.357848   4.420156   6.972930   # C_3
 363 1 5   0.045300   2.470179   5.502580   7.479469   # H_
 364 1 5   0.052072   2.853343   4.086259   8.408295   # H_
 365 1 3  -0.110616   4.405459   3.218912   6.029820   # C_3
 366 1 5   0.044381   5.075117   4.179411   7.712555   # H_
 367 1 5   0.034618   4.618052   5.373203   6.510897   # H_
 368 1 5   0.053955   5.388107   2.723138   6.177206   # H_
 369 1 5   0.051711   4.133663   3.385136   5.042617   # H_
 370 1 5   0.020945   3.733731   1.977509   7.432065   # H_
 371 1 3   0.534704   7.170619  10.350200  17.520819   # C_3
 372 1 2  -0.632069   6.821610  10.350200  18.727859   # O_3
 373 1 2  -0.643183   8.377659  10.350200  17.171810   # O_3
 374 1 3  -0.163940   6.106618  10.350200  16.456818   # C_3
 375 1 3   0.085638   6.533667  10.350200  15.162836   # C_3
 376 1 4  -0.155595   7.761408   9.487200  14.800372   # N_3
 377 1 5   0.037341   5.769615  10.350200  13.051809   # H_
 378 1 3  -0.011736   5.537564  10.350200  14.167768   # C_3
 379 1 3  -0.172410   4.243582  10.350200  14.593782   # C_3
 380 1 3   0.085850   3.817568  10.350200  15.887764   # C_3
 381 1 3  -0.007970   4.812636  10.350200  16.883867   # C_3
 382 1 5   0.038054   4.580585  10.350200  17.999826   # H_
 383 1 4  -0.154765   2.725415  11.408197  16.207999   # N_3
 384 1 2  -0.749624   1.972748  10.350200  13.878790   # O_3
 385 1 3   0.534588   3.179581  10.350200  13.529781   # C_3
 386 1 2  -0.740788   3.528590  10.350200  12.322741   # O_3
 387 1 5   0.073123   8.127391   9.922116  13.954968   # H_
 388 1 3   0.091237   7.193389   8.158028  14.398991   # C_3
 389 1 5   0.010810   6.141809   8.124079  14.092832   # H_
 390 1 3  -0.146738   7.297926   7.193596  15.406894   # C_3
 391 1 3  -0.158278   7.874846   7.393976  13.297316   # C_3
 392 1 3  -0.037373   7.261907   5.962543  13.304975   # C_3
 393 1 5   0.042074   7.839448   5.084639  12.907527   # H_
 394 1 5   0.040604   6.266632   5.944741  12.814790   # H_
 395 1 3  -0.045206   7.022818   5.785141  14.717777   # C_3
 396 1 5   0.067307   6.678570   7.362304  16.200547   # H_
 397 1 5   0.078641   8.251386   7.299996  15.876379   # H_
 398 1 5   0.039486   7.743192   5.049449  15.101977   # H_
 399 1 5   0.030269   5.989040   5.412327  14.831216   # H_
 400 1 5   0.065526   8.906761   7.416953  13.424002   # H_
 401 1 5   0.075248   7.704689   7.759131  12.413409   # H_
 402 1 3   0.036506   3.232781  12.491035  17.108260   # C_3
 403 1 5   0.079267   2.568299  11.951583  15.319745   # H_
 404 1 3  -0.073441   2.339352  13.571803  17.061684   # C_3
 405 1 5   0.043086   2.253653  13.841322  15.948002   # H_
 406 1 3  -0.072868   2.972991  14.703080  17.727202   # C_3
 407 1 5   0.026295   1.439920  13.248463  17.634878   # H_
 408 1 3  -0.044422   4.399249  14.559212  17.336585   # C_3
 409 1 5   0.048434   2.468109  15.660681  17.535102   # H_
 410 1 5   0.073341   2.826847  14.478067  18.738416   # H_
 411 1 3  -0.092913   4.555744  13.207269  16.725923   # C_3
 412 1 5   0.063814   5.076152  14.563766  18.252578   # H_
 413 1 5   0.034803   4.690504  15.429250  16.729028   # H_
 414 1 5   0.052398   5.466355  12.747513  17.188370   # H_
 415 1 5   0.042315   4.614326  13.275581  15.625283   # H_
 416 1 5   0.019107   3.259278  12.044735  18.084904   # H_
 417 1 3   0.522303  17.520819   3.179581   0.000000   # C_3
 418 1 2  -0.734048  18.727859   3.528590   0.000000   # O_3
 419 1 2  -0.771248  17.171810   1.972541   0.000000   # O_3
 420 1 3  -0.172838  16.456818   4.243582   0.000000   # C_3
 421 1 3   0.036962  15.162836   3.816533   0.000000   # C_3
 422 1 4  -0.114982  14.816932   2.532901  20.016666   # N_3
 423 1 5   0.009862  13.051809   4.580585   0.000000   # H_
 424 1 3  -0.012933  14.167768   4.812636   0.000000   # C_3
 425 1 3  -0.180085  14.593782   6.106618   0.000000   # C_3
 426 1 3   0.063791  15.887764   6.532632   0.000000   # C_3
 427 1 3  -0.020764  16.883867   5.537564   0.000000   # C_3
 428 1 5   0.019547  17.999826   5.769615   0.000000   # H_
 429 1 4  -0.166586  16.116503   7.789561   0.918063   # N_3
 430 1 2  -0.690026  13.878790   8.377452   0.000000   # O_3
 431 1 3   0.543814  13.529781   7.170619   0.000000   # C_3
 432 1 2  -0.697497  12.322741   6.821610   0.000000   # O_3
 433 1 5   0.095728  15.352866   2.147459  19.225704   # H_
 434 1 3   0.130425  13.686690   1.896778  20.664381   # C_3
 435 1 5   0.008494  12.771733   2.045821  20.127413   # H_
 436 1 3  -0.197273  13.813377   2.268143   1.453582   # C_3
 437 1 3   0.064933  13.897214   0.465759  20.687566   # C_3
 438 1 3  -0.362080  15.159524   0.408626   0.673384   # C_3
 439 1 5   0.054858  15.829803   0.379231  20.532520   # H_
 440 1 5   0.151930  15.221004  20.046474   0.979543   # H_
 441 1 3   0.038079  15.165527   1.811078   1.711716   # C_3
 442 1 5   0.053896  13.099006   1.729104   2.013114   # H_
 443 1 5   0.065053  13.743203   3.338768   1.807973   # H_
 444 1 5   0.043520  16.060198   2.312649   1.679837   # H_
 445 1 5   0.022541  15.023936   2.068177   2.809251   # H_
 446 1 5   0.088953  13.886035  20.686531  19.726860   # H_
 447 1 5  -0.099072  13.071682   0.001863   0.537175   # H_
 448 1 3   0.080212  16.626768   9.004053   0.428705   # C_3
 449 1 5   0.097288  15.438772   7.902999   1.712958   # H_
 450 1 3  -0.478240  15.932891  10.373591   0.348802   # C_3
 451 1 5   0.100963  15.120193  10.298863  20.437298   # H_
 452 1 3   0.314365  17.047193  11.119013  20.489256   # C_3
 453 1 5   0.156300  15.662958  10.993775   1.080561   # H_
 454 1 3  -0.208201  17.869413  10.102209  19.810904   # C_3
 455 1 5  -0.095706  17.652059  11.505282   0.641091   # H_
 456 1 5  -0.016705  16.603377  11.903351  19.892670   # H_
 457 1 3   0.013187  17.004965   8.869086  19.719201   # C_3
 458 1 5   0.105393  18.802173  10.003261  20.442887   # H_
 459 1 5   0.077609  18.132101  10.592602  18.950595   # H_
 460 1 5   0.042525  17.531997   7.997600  19.363568   # H_
 461 1 5   0.060598  16.062475   8.818163  19.169812   # H_
 462 1 5  -0.003851  17.447746   9.234862   1.162534   # H_
 463 1 3   0.535156  17.520819  13.529781  10.350200   # C_3
 464 1 2  -0.724793  18.727859  13.878790  10.350200   # O_3
 465 1 2  -0.731241  17.171810  12.322741  10.350200   # O_3
 466 1 3  -0.173592  16.456818  14.593782  10.350200   # C_3
 467 1 3   0.098273  15.162836  14.166733  10.350200   # C_3
 468 1 4  -0.158122  14.800165  12.975011   9.480576   # N_3
 469 1 5   0.041588  13.051809  14.930785  10.350200   # H_
 470 1 3  -0.015976  14.167768  15.162629  10.350200   # C_3
 471 1 3  -0.159737  14.593782  16.456611  10.350200   # C_3
 472 1 3   0.089848  15.887764  16.882832  10.350200   # C_3
 473 1 3  -0.007752  16.883867  15.887764  10.350200   # C_3
 474 1 5   0.038576  17.999826  16.119815  10.350200   # H_
 475 1 4  -0.146409  16.107395  18.134378  11.203263   # N_3
 476 1 2  -0.617424  13.878790  18.727652  10.350200   # O_3
 477 1 3   0.533877  13.529781  17.520612  10.350200   # C_3
 478 1 2  -0.652119  12.322741  17.171603  10.350200   # O_3
 479 1 5   0.091878  15.438772  12.437214   8.868051   # H_
 480 1 3   0.069217  13.641978  12.255051  10.076955   # C_3
 481 1 5   0.000900  12.699902  12.733644   9.717596   # H_
 482 1 3  -0.108432  13.836768  12.423552  11.508801   # C_3
 483 1 3  -0.126137  13.706977  10.762966   9.988771   # C_3
 484 1 3   0.000382  14.975497  10.572522  10.826930   # C_3
 485 1 5  -0.075602  15.818418  10.557204  10.152304   # H_
 486 1 5   0.031271  14.945275   9.572072  11.280476   # H_
 487 1 3  -0.067267  15.085002  11.932746  11.784945   # C_3
 488 1 5   0.049354  13.131299  11.789499  11.830900   # H_