 (written by mofun)

728 atoms
0 bonds
0 angles
0 dihedrals
0 impropers

5 atom types
   0.000000  26.896000 xlo xhi
   0.000000  26.896000 ylo yhi
   0.000000  26.896000 zlo zhi

Masses

 1 91.2240   # Zr3+4
 2 15.9994   # O_3
 3 12.0107   # C_3
 4 1.0079   # H_
 5 14.0067   # N_3

Pair Coeffs

 1   0.069000   2.783168 # Zr3+4
 2   0.060000   3.118146 # O_3
 3   0.105000   3.430851 # C_3
 4   0.044000   2.571134 # H_
 5   0.069000   3.260689 # N_3

Atoms

 1 1 1   3.183870   2.475508   0.000000   0.000000   # Zr3+4
 2 1 1   3.182940  24.420492   0.000000   0.000000   # Zr3+4
 3 1 1   3.183820   0.000000   2.475508   0.000000   # Zr3+4
 4 1 1   3.182890   0.000000  24.420492   0.000000   # Zr3+4
 5 1 1   3.183850   0.000000   0.000000   2.475508   # Zr3+4
 6 1 1   3.182920   0.000000   0.000000  24.420492   # Zr3+4
 7 1 1   3.215200   2.475508  13.448000  13.448000   # Zr3+4
 8 1 1   3.213860  24.420492  13.448000  13.448000   # Zr3+4
 9 1 1   3.199070   0.000000  15.923508  13.448000   # Zr3+4
 10 1 1   3.198980   0.000000  10.972492  13.448000   # Zr3+4
 11 1 1   3.199070   0.000000  13.448000  15.923508   # Zr3+4
 12 1 1   3.198940   0.000000  13.448000  10.972492   # Zr3+4
 13 1 1   3.198960  15.923508   0.000000  13.448000   # Zr3+4
 14 1 1   3.198880  10.972492   0.000000  13.448000   # Zr3+4
 15 1 1   3.215000  13.448000   2.475508  13.448000   # Zr3+4
 16 1 1   3.213650  13.448000  24.420492  13.448000   # Zr3+4
 17 1 1   3.199090  13.448000   0.000000  15.923508   # Zr3+4
 18 1 1   3.199020  13.448000   0.000000  10.972492   # Zr3+4
 19 1 1   3.198860  15.923508  13.448000   0.000000   # Zr3+4
 20 1 1   3.198770  10.972492  13.448000   0.000000   # Zr3+4
 21 1 1   3.198940  13.448000  15.923508   0.000000   # Zr3+4
 22 1 1   3.198860  13.448000  10.972492   0.000000   # Zr3+4
 23 1 1   3.214900  13.448000  13.448000   2.475508   # Zr3+4
 24 1 1   3.213560  13.448000  13.448000  24.420492   # Zr3+4
 25 1 2  -1.343000   1.221078   1.221078   1.221078   # O_3
 26 1 2  -1.120680  25.674922  25.674922   1.221078   # O_3
 27 1 2  -1.120540  25.674922   1.221078  25.674922   # O_3
 28 1 2  -1.120820   1.221078  25.674922  25.674922   # O_3
 29 1 2  -1.230070   1.221078   1.221078  25.674922   # O_3
 30 1 2  -1.014850  25.674922  25.674922  25.674922   # O_3
 31 1 2  -1.230200   1.221078  25.674922   1.221078   # O_3
 32 1 2  -1.229920  25.674922   1.221078   1.221078   # O_3
 33 1 2  -1.278120   1.221078  14.669078  14.669078   # O_3
 34 1 2  -1.165500  25.674922  12.226922  14.669078   # O_3
 35 1 2  -1.165550  25.674922  14.669078  12.226922   # O_3
 36 1 2  -1.278570   1.221078  12.226922  12.226922   # O_3
 37 1 2  -1.278370   1.221078  14.669078  12.226922   # O_3
 38 1 2  -1.165490  25.674922  12.226922  12.226922   # O_3
 39 1 2  -1.278320   1.221078  12.226922  14.669078   # O_3
 40 1 2  -1.165560  25.674922  14.669078  14.669078   # O_3
 41 1 2  -1.277870  14.669078   1.221078  14.669078   # O_3
 42 1 2  -1.165590  12.226922  25.674922  14.669078   # O_3
 43 1 2  -1.278250  12.226922   1.221078  12.226922   # O_3
 44 1 2  -1.165580  14.669078  25.674922  12.226922   # O_3
 45 1 2  -1.278040  14.669078   1.221078  12.226922   # O_3
 46 1 2  -1.165530  12.226922  25.674922  12.226922   # O_3
 47 1 2  -1.165640  14.669078  25.674922  14.669078   # O_3
 48 1 2  -1.278080  12.226922   1.221078  14.669078   # O_3
 49 1 2  -1.277710  14.669078  14.669078   1.221078   # O_3
 50 1 2  -1.278130  12.226922  12.226922   1.221078   # O_3
 51 1 2  -1.165340  12.226922  14.669078  25.674922   # O_3
 52 1 2  -1.165330  14.669078  12.226922  25.674922   # O_3
 53 1 2  -1.165380  14.669078  14.669078  25.674922   # O_3
 54 1 2  -1.165290  12.226922  12.226922  25.674922   # O_3
 55 1 2  -1.277910  14.669078  12.226922   1.221078   # O_3
 56 1 2  -1.277920  12.226922  14.669078   1.221078   # O_3
 57 1 2  -0.691796   3.566410   0.000000   1.933822   # O_3
 58 1 3   0.519437   3.152211   0.000000   3.152211   # C_3
 59 1 2  -0.691850   1.933822   0.000000   3.566410   # O_3
 60 1 3  -0.254423   4.209224   0.000000   4.209224   # C_3
 61 1 3   0.167232   5.535197   0.000000   3.891851   # C_3
 62 1 3   0.163261   3.891851   0.000000   5.535197   # C_3
 63 1 3  -0.231068   6.508832   0.000000   4.827832   # C_3
 64 1 4  -0.032472   5.779950   0.000000   2.996214   # H_
 65 1 3  -0.225866   4.827832   0.000000   6.508832   # C_3
 66 1 4  -0.031919   2.996214   0.000000   5.779950   # H_
 67 1 3   0.135797   6.204907   0.000000   6.204907   # C_3
 68 1 3  -0.055748   7.243093   0.000000   7.243093   # C_3
 69 1 4   0.111786   7.399090   0.000000   4.558872   # H_
 70 1 3   0.045147   8.620168   0.000000   6.939168   # C_3
 71 1 4   0.092369   4.558872   0.000000   7.399090   # H_
 72 1 3  -0.062525   6.939168   0.000000   8.620168   # C_3
 73 1 3  -0.028549   9.556149   0.000000   7.912803   # C_3
 74 1 5  -0.086108   9.165350   0.393220   5.572044   # N_3
 75 1 3   0.014608   7.912803   0.000000   9.556149   # C_3
 76 1 4   0.036505   6.048910   0.000000   8.889128   # H_
 77 1 3  -0.122122   9.238776   0.000000   9.238776   # C_3
 78 1 3   0.467192  10.295789   0.000000  10.295789   # C_3
 79 1 4   0.053429  10.451786   0.000000   7.668050   # H_
 80 1 4   0.027601   7.668050   0.000000  10.451786   # H_
 81 1 2  -0.671850  11.514178   0.000000   9.881590   # O_3
 82 1 2  -0.672044   9.881590   0.000000  11.514178   # O_3
 83 1 5  -0.126285  10.333174   0.087143   5.329173   # N_3
 84 1 5   0.074305  11.458503  26.693473   5.049455   # N_3
 85 1 2  -0.681281  23.329590   0.000000   1.933822   # O_3
 86 1 3   0.503617  23.743789   0.000000   3.152211   # C_3
 87 1 2  -0.603193  24.962178   0.000000   3.566410   # O_3
 88 1 3  -0.211493  22.686776   0.000000   4.209224   # C_3
 89 1 3   0.144714  21.360803   0.000000   3.891851   # C_3
 90 1 3   0.141038  23.004149   0.000000   5.535197   # C_3
 91 1 3  -0.204752  20.387168   0.000000   4.827832   # C_3
 92 1 4  -0.020858  21.116050   0.000000   2.996214   # H_
 93 1 3  -0.190528  22.068168   0.000000   6.508832   # C_3
 94 1 4   0.021000  23.899786   0.000000   5.779950   # H_
 95 1 3   0.124784  20.691093   0.000000   6.204907   # C_3
 96 1 3  -0.039709  19.652907   0.000000   7.243093   # C_3
 97 1 4   0.105597  19.496910   0.000000   4.558872   # H_
 98 1 3   0.042197  18.275832   0.000000   6.939168   # C_3
 99 1 4   0.106611  22.337128   0.000000   7.399090   # H_
 100 1 3  -0.070125  19.956832   0.000000   8.620168   # C_3
 101 1 3  -0.021976  17.339851   0.000000   7.912803   # C_3
 102 1 5  -0.083240  17.730650   0.393220   5.572044   # N_3
 103 1 3   0.026680  18.983197   0.000000   9.556149   # C_3
 104 1 4   0.055862  20.847090   0.000000   8.889128   # H_
 105 1 3  -0.125544  17.657224   0.000000   9.238776   # C_3
 106 1 3   0.469589  16.600211   0.000000  10.295789   # C_3
 107 1 4   0.052127  16.444214   0.000000   7.668050   # H_
 108 1 4   0.030524  19.227950   0.000000  10.451786   # H_
 109 1 2  -0.671746  15.381822   0.000000   9.881590   # O_3
 110 1 2  -0.670457  17.014410   0.000000  11.514178   # O_3
 111 1 5  -0.125045  16.562826   0.087143   5.329173   # N_3
 112 1 5   0.074685  15.437497  26.693473   5.049455   # N_3
 113 1 2  -0.594245  23.329590   0.000000  24.962178   # O_3
 114 1 3   0.488545  23.743789   0.000000  23.743789   # C_3
 115 1 2  -0.594198  24.962178   0.000000  23.329590   # O_3
 116 1 3  -0.170598  22.686776   0.000000  22.686776   # C_3
 117 1 3   0.123900  21.360803   0.000000  23.004149   # C_3
 118 1 3   0.120472  23.004149   0.000000  21.360803   # C_3
 119 1 3  -0.171557  20.387168   0.000000  22.068168   # C_3
 120 1 4   0.030821  21.116050   0.000000  23.899786   # H_
 121 1 3  -0.166946  22.068168   0.000000  20.387168   # C_3
 122 1 4   0.031419  23.899786   0.000000  21.116050   # H_
 123 1 3   0.116428  20.691093   0.000000  20.691093   # C_3
 124 1 3  -0.030274  19.652907   0.000000  19.652907   # C_3
 125 1 4   0.118574  19.496910   0.000000  22.337128   # H_
 126 1 3   0.048825  18.275832   0.000000  19.956832   # C_3
 127 1 4   0.101289  22.337128   0.000000  19.496910   # H_
 128 1 3  -0.072135  19.956832   0.000000  18.275832   # C_3
 129 1 3  -0.020329  17.339851   0.000000  18.983197   # C_3
 130 1 5  -0.070395  17.726885   0.268960  21.344128   # N_3
 131 1 3   0.030212  18.983197   0.000000  17.339851   # C_3
 132 1 4   0.058921  20.847090   0.000000  18.006872   # H_
 133 1 3  -0.124576  17.657224   0.000000  17.657224   # C_3
 134 1 3   0.470352  16.600211   0.000000  16.600211   # C_3
 135 1 4   0.054944  16.444214   0.000000  19.227950   # H_
 136 1 4   0.030291  19.227950   0.000000  16.444214   # H_
 137 1 2  -0.670301  15.381822   0.000000  17.014410   # O_3
 138 1 2  -0.670035  17.014410   0.000000  15.381822   # O_3
 139 1 5  -0.109702  16.520330   0.084991  21.458705   # N_3
 140 1 5   0.099333  15.343361  26.795947  21.529710   # N_3
 141 1 2  -0.603337   3.566410   0.000000  24.962178   # O_3
 142 1 3   0.503895   3.152211   0.000000  23.743789   # C_3
 143 1 2  -0.681431   1.933822   0.000000  23.329590   # O_3
 144 1 3  -0.212423   4.209224   0.000000  22.686776   # C_3
 145 1 3   0.145762   5.535197   0.000000  23.004149   # C_3
 146 1 3   0.142043   3.891851   0.000000  21.360803   # C_3
 147 1 3  -0.197104   6.508832   0.000000  22.068168   # C_3
 148 1 4   0.019928   5.779950   0.000000  23.899786   # H_
 149 1 3  -0.201516   4.827832   0.000000  20.387168   # C_3
 150 1 4  -0.020780   2.996214   0.000000  21.116050   # H_
 151 1 3   0.127078   6.204907   0.000000  20.691093   # C_3
 152 1 3  -0.046016   7.243093   0.000000  19.652907   # C_3
 153 1 4   0.124694   7.399090   0.000000  22.337128   # H_
 154 1 3   0.051717   8.620168   0.000000  19.956832   # C_3
 155 1 4   0.086989   4.558872   0.000000  19.496910   # H_
 156 1 3  -0.064684   6.939168   0.000000  18.275832   # C_3
 157 1 3  -0.026805   9.556149   0.000000  18.983197   # C_3
 158 1 5  -0.073097   9.168846   0.270305  21.344128   # N_3
 159 1 3   0.018299   7.912803   0.000000  17.339851   # C_3
 160 1 4   0.039726   6.048910   0.000000  18.006872   # H_
 161 1 3  -0.121211   9.238776   0.000000  17.657224   # C_3
 162 1 3   0.467988  10.295789   0.000000  16.600211   # C_3
 163 1 4   0.056242  10.451786   0.000000  19.227950   # H_
 164 1 4   0.027350   7.668050   0.000000  16.444214   # H_
 165 1 2  -0.670397  11.514178   0.000000  17.014410   # O_3
 166 1 2  -0.671614   9.881590   0.000000  15.381822   # O_3
 167 1 5  -0.110852  10.375401   0.085529  21.458974   # N_3
 168 1 5   0.099091  11.552101  26.795409  21.530517   # N_3
 169 1 2  -0.692274   1.933822   3.566410   0.000000   # O_3
 170 1 3   0.519303   3.152211   3.152211   0.000000   # C_3
 171 1 2  -0.691831   3.566410   1.933822   0.000000   # O_3
 172 1 3  -0.254262   4.209224   4.209224   0.000000   # C_3
 173 1 3   0.166179   3.891851   5.535197   0.000000   # C_3
 174 1 3   0.162759   5.535197   3.891851   0.000000   # C_3
 175 1 3  -0.230625   4.827832   6.508832   0.000000   # C_3
 176 1 4  -0.033566   2.996214   5.779950   0.000000   # H_
 177 1 3  -0.225491   6.508832   4.827832   0.000000   # C_3
 178 1 4  -0.031700   5.779950   2.996214   0.000000   # H_
 179 1 3   0.134896   6.204907   6.204907   0.000000   # C_3
 180 1 3  -0.055308   7.243093   7.243093   0.000000   # C_3
 181 1 4   0.109515   4.558872   7.399090   0.000000   # H_
 182 1 3   0.044401   6.939168   8.620168   0.000000   # C_3
 183 1 4   0.092249   7.399090   4.558872   0.000000   # H_
 184 1 3  -0.063577   8.620168   6.939168   0.000000   # C_3
 185 1 3  -0.027592   7.912803   9.556149   0.000000   # C_3
 186 1 5  -0.085794   5.608892   9.098917   0.508872   # N_3
 187 1 3   0.015665   9.556149   7.912803   0.000000   # C_3
 188 1 4   0.036876   8.889128   6.048910   0.000000   # H_
 189 1 3  -0.123769   9.238776   9.238776   0.000000   # C_3
 190 1 3   0.468025  10.295789  10.295789   0.000000   # C_3
 191 1 4   0.049664   7.668050  10.451786   0.000000   # H_
 192 1 4   0.027234  10.451786   7.668050   0.000000   # H_
 193 1 2  -0.674262   9.881590  11.514178   0.000000   # O_3
 194 1 2  -0.672284  11.514178   9.881590   0.000000   # O_3
 195 1 5  -0.128903   5.387269  10.233659   0.142011   # N_3
 196 1 5   0.067408   5.246872  11.348229  26.651784   # N_3
 197 1 2  -0.681802   1.933822  23.329590   0.000000   # O_3
 198 1 3   0.503498   3.152211  23.743789   0.000000   # C_3
 199 1 2  -0.603392   3.566410  24.962178   0.000000   # O_3
 200 1 3  -0.211452   4.209224  22.686776   0.000000   # C_3
 201 1 3   0.143680   3.891851  21.360803   0.000000   # C_3
 202 1 3   0.140574   5.535197  23.004149   0.000000   # C_3
 203 1 3  -0.204395   4.827832  20.387168   0.000000   # C_3
 204 1 4  -0.021997   2.996214  21.116050   0.000000   # H_
 205 1 3  -0.190236   6.508832  22.068168   0.000000   # C_3
 206 1 4   0.021118   5.779950  23.899786   0.000000   # H_
 207 1 3   0.123859   6.204907  20.691093   0.000000   # C_3
 208 1 3  -0.039309   7.243093  19.652907   0.000000   # C_3
 209 1 4   0.103291   4.558872  19.496910   0.000000   # H_
 210 1 3   0.041355   6.939168  18.275832   0.000000   # C_3
 211 1 4   0.106506   7.399090  22.337128   0.000000   # H_
 212 1 3  -0.071204   8.620168  19.956832   0.000000   # C_3
 213 1 3  -0.020966   7.912803  17.339851   0.000000   # C_3
 214 1 5  -0.083044   5.607278  17.794663   0.502955   # N_3
 215 1 3   0.027750   9.556149  18.983197   0.000000   # C_3
 216 1 4   0.056248   8.889128  20.847090   0.000000   # H_
 217 1 3  -0.127241   9.238776  17.657224   0.000000   # C_3
 218 1 3   0.470425  10.295789  16.600211   0.000000   # C_3
 219 1 4   0.048364   7.668050  16.444214   0.000000   # H_
 220 1 4   0.030157  10.451786  19.227950   0.000000   # H_
 221 1 2  -0.674170   9.881590  15.381822   0.000000   # O_3
 222 1 2  -0.670701  11.514178  17.014410   0.000000   # O_3
 223 1 5  -0.127683   5.393993  16.655617   0.142011   # N_3
 224 1 5   0.067958   5.264085  15.537819  26.657164   # N_3
 225 1 2  -0.594571  24.962178  23.329590   0.000000   # O_3
 226 1 3   0.488315  23.743789  23.743789   0.000000   # C_3
 227 1 2  -0.594346  23.329590  24.962178   0.000000   # O_3
 228 1 3  -0.170048  22.686776  22.686776   0.000000   # C_3
 229 1 3   0.122467  23.004149  21.360803   0.000000   # C_3
 230 1 3   0.119545  21.360803  23.004149   0.000000   # C_3
 231 1 3  -0.170264  22.068168  20.387168   0.000000   # C_3
 232 1 4   0.030142  23.899786  21.116050   0.000000   # H_
 233 1 3  -0.165927  20.387168  22.068168   0.000000   # C_3
 234 1 4   0.031733  21.116050  23.899786   0.000000   # H_
 235 1 3   0.114839  20.691093  20.691093   0.000000   # C_3
 236 1 3  -0.028522  19.652907  19.652907   0.000000   # C_3
 237 1 4   0.116210  22.337128  19.496910   0.000000   # H_
 238 1 3   0.045889  19.956832  18.275832   0.000000   # C_3
 239 1 4   0.100978  19.496910  22.337128   0.000000   # H_
 240 1 3  -0.073880  18.275832  19.956832   0.000000   # C_3
 241 1 3  -0.018429  18.983197  17.339851   0.000000   # C_3
 242 1 5  -0.067838  21.291412  17.790628   0.493811   # N_3
 243 1 3   0.031948  17.339851  18.983197   0.000000   # C_3
 244 1 4   0.059619  18.006872  20.847090   0.000000   # H_
 245 1 3  -0.126399  17.657224  17.657224   0.000000   # C_3
 246 1 3   0.471299  16.600211  16.600211   0.000000   # C_3
 247 1 4   0.051980  19.227950  16.444214   0.000000   # H_
 248 1 4   0.029758  16.444214  19.227950   0.000000   # H_
 249 1 2  -0.672057  17.014410  15.381822   0.000000   # O_3
 250 1 2  -0.670239  15.381822  17.014410   0.000000   # O_3
 251 1 5  -0.111637  21.493132  16.645934   0.141742   # N_3
 252 1 5   0.094123  21.609591  15.523833  26.664156   # N_3
 253 1 2  -0.603613  24.962178   3.566410   0.000000   # O_3
 254 1 3   0.503641  23.743789   3.152211   0.000000   # C_3
 255 1 2  -0.681352  23.329590   1.933822   0.000000   # O_3
 256 1 3  -0.211721  22.686776   4.209224   0.000000   # C_3
 257 1 3   0.144270  23.004149   5.535197   0.000000   # C_3
 258 1 3   0.141057  21.360803   3.891851   0.000000   # C_3
 259 1 3  -0.195667  22.068168   6.508832   0.000000   # C_3
 260 1 4   0.019304  23.899786   5.779950   0.000000   # H_
 261 1 3  -0.200384  20.387168   4.827832   0.000000   # C_3
 262 1 4  -0.020353  21.116050   2.996214   0.000000   # H_
 263 1 3   0.125481  20.691093   6.204907   0.000000   # C_3
 264 1 3  -0.044134  19.652907   7.243093   0.000000   # C_3
 265 1 4   0.122334  22.337128   7.399090   0.000000   # H_
 266 1 3   0.048774  19.956832   8.620168   0.000000   # C_3
 267 1 4   0.086660  19.496910   4.558872   0.000000   # H_
 268 1 3  -0.066444  18.275832   6.939168   0.000000   # C_3
 269 1 3  -0.024977  18.983197   9.556149   0.000000   # C_3
 270 1 5  -0.070291  21.286032   9.097303   0.512638   # N_3
 271 1 3   0.020055  17.339851   7.912803   0.000000   # C_3
 272 1 4   0.040429  18.006872   6.048910   0.000000   # H_
 273 1 3  -0.122981  17.657224   9.238776   0.000000   # C_3
 274 1 3   0.468933  16.600211  10.295789   0.000000   # C_3
 275 1 4   0.053257  19.227950  10.451786   0.000000   # H_
 276 1 4   0.026807  16.444214   7.668050   0.000000   # H_
 277 1 2  -0.672126  17.014410  11.514178   0.000000   # O_3
 278 1 2  -0.671815  15.381822   9.881590   0.000000   # O_3
 279 1 5  -0.112896  21.513572  10.229356   0.141742   # N_3
 280 1 5   0.094144  21.661500  11.341505  26.648288   # N_3
 281 1 2  -0.691865   0.000000   1.933822   3.566410   # O_3
 282 1 3   0.519177   0.000000   3.152211   3.152211   # C_3
 283 1 2  -0.692254   0.000000   3.566410   1.933822   # O_3
 284 1 3  -0.253871   0.000000   4.209224   4.209224   # C_3
 285 1 3   0.166207   0.000000   3.891851   5.535197   # C_3
 286 1 3   0.161613   0.000000   5.535197   3.891851   # C_3
 287 1 3  -0.230215   0.000000   4.827832   6.508832   # C_3
 288 1 4  -0.032253   0.000000   2.996214   5.779950   # H_
 289 1 3  -0.224862   0.000000   6.508832   4.827832   # C_3
 290 1 4  -0.032740   0.000000   5.779950   2.996214   # H_
 291 1 3   0.134048   0.000000   6.204907   6.204907   # C_3
 292 1 3  -0.055756   0.000000   7.243093   7.243093   # C_3
 293 1 4   0.111311   0.000000   4.558872   7.399090   # H_
 294 1 3   0.044631   0.000000   6.939168   8.620168   # C_3
 295 1 4   0.088921   0.000000   7.399090   4.558872   # H_
 296 1 3  -0.065414   0.000000   8.620168   6.939168   # C_3
 297 1 3  -0.027928   0.000000   7.912803   9.556149   # C_3
 298 1 5  -0.086296   0.393757   5.574465   9.156474   # N_3
 299 1 3   0.015329   0.000000   9.556149   7.912803   # C_3
 300 1 4   0.032015   0.000000   8.889128   6.048910   # H_
 301 1 3  -0.124498   0.000000   9.238776   9.238776   # C_3
 302 1 3   0.467443   0.000000  10.295789  10.295789   # C_3
 303 1 4   0.052755   0.000000   7.668050  10.451786   # H_
 304 1 4   0.020565   0.000000  10.451786   7.668050   # H_
 305 1 2  -0.672379   0.000000   9.881590  11.514178   # O_3
 306 1 2  -0.674062   0.000000  11.514178   9.881590   # O_3
 307 1 5  -0.126484   0.102205   5.355532  10.329140   # N_3
 308 1 5   0.074912  26.716873   5.121805  11.466034   # N_3
 309 1 2  -0.681425   0.000000   1.933822  23.329590   # O_3
 310 1 3   0.503509   0.000000   3.152211  23.743789   # C_3
 311 1 2  -0.603760   0.000000   3.566410  24.962178   # O_3
 312 1 3  -0.211504   0.000000   4.209224  22.686776   # C_3
 313 1 3   0.144265   0.000000   3.891851  21.360803   # C_3
 314 1 3   0.140136   0.000000   5.535197  23.004149   # C_3
 315 1 3  -0.204605   0.000000   4.827832  20.387168   # C_3
 316 1 4  -0.020876   0.000000   2.996214  21.116050   # H_
 317 1 3  -0.190372   0.000000   6.508832  22.068168   # C_3
 318 1 4   0.019970   0.000000   5.779950  23.899786   # H_
 319 1 3   0.123920   0.000000   6.204907  20.691093   # C_3
 320 1 3  -0.040449   0.000000   7.243093  19.652907   # C_3
 321 1 4   0.105364   0.000000   4.558872  19.496910   # H_
 322 1 3   0.042644   0.000000   6.939168  18.275832   # C_3
 323 1 4   0.104103   0.000000   7.399090  22.337128   # H_
 324 1 3  -0.071244   0.000000   8.620168  19.956832   # C_3
 325 1 3  -0.022260   0.000000   7.912803  17.339851   # C_3
 326 1 5  -0.083639   0.389723   5.574465  17.743829   # N_3
 327 1 3   0.026163   0.000000   9.556149  18.983197   # C_3
 328 1 4   0.052500   0.000000   8.889128  20.847090   # H_
 329 1 3  -0.126407   0.000000   9.238776  17.657224   # C_3
 330 1 3   0.469365   0.000000  10.295789  16.600211   # C_3
 331 1 4   0.051693   0.000000   7.668050  16.444214   # H_
 332 1 4   0.026812   0.000000  10.451786  19.227950   # H_
 333 1 2  -0.672116   0.000000   9.881590  15.381822   # O_3
 334 1 2  -0.671044   0.000000  11.514178  17.014410   # O_3
 335 1 5  -0.125238   0.108391   5.371669  16.567398   # N_3
 336 1 5   0.075704  26.730321   5.169142  15.423780   # N_3
 337 1 2  -0.594439   0.000000  24.962178  23.329590   # O_3
 338 1 3   0.488236   0.000000  23.743789  23.743789   # C_3
 339 1 2  -0.594724   0.000000  23.329590  24.962178   # O_3
 340 1 3  -0.169978   0.000000  22.686776  22.686776   # C_3
 341 1 3   0.122519   0.000000  23.004149  21.360803   # C_3
 342 1 3   0.118780   0.000000  21.360803  23.004149   # C_3
 343 1 3  -0.170211   0.000000  22.068168  20.387168   # C_3
 344 1 4   0.031035   0.000000  23.899786  21.116050   # H_
 345 1 3  -0.165815   0.000000  20.387168  22.068168   # C_3
 346 1 4   0.030667   0.000000  21.116050  23.899786   # H_
 347 1 3   0.114325   0.000000  20.691093  20.691093   # C_3
 348 1 3  -0.029379   0.000000  19.652907  19.652907   # C_3
 349 1 4   0.117430   0.000000  22.337128  19.496910   # H_
 350 1 3   0.046262   0.000000  19.956832  18.275832   # C_3
 351 1 4   0.098439   0.000000  19.496910  22.337128   # H_
 352 1 3  -0.074360   0.000000  18.275832  19.956832   # C_3
 353 1 3  -0.019556   0.000000  18.983197  17.339851   # C_3
 354 1 5  -0.068491   0.394295  21.322073  17.736567   # N_3
 355 1 3   0.030608   0.000000  17.339851  18.983197   # C_3
 356 1 4   0.055977   0.000000  18.006872  20.847090   # H_
 357 1 3  -0.125955   0.000000  17.657224  17.657224   # C_3
 358 1 3   0.470285   0.000000  16.600211  16.600211   # C_3
 359 1 4   0.054962   0.000000  19.227950  16.444214   # H_
 360 1 4   0.026287   0.000000  16.444214  19.227950   # H_
 361 1 2  -0.670217   0.000000  17.014410  15.381822   # O_3
 362 1 2  -0.670636   0.000000  15.381822  17.014410   # O_3
 363 1 5  -0.110424   0.097632  21.549613  16.565515   # N_3
 364 1 5   0.101025  26.709073  21.799746  15.432925   # N_3
 365 1 2  -0.603473   0.000000  24.962178   3.566410   # O_3
 366 1 3   0.503436   0.000000  23.743789   3.152211   # C_3
 367 1 2  -0.681811   0.000000  23.329590   1.933822   # O_3
 368 1 3  -0.211320   0.000000  22.686776   4.209224   # C_3
 369 1 3   0.143858   0.000000  23.004149   5.535197   # C_3
 370 1 3   0.139655   0.000000  21.360803   3.891851   # C_3
 371 1 3  -0.195169   0.000000  22.068168   6.508832   # C_3
 372 1 4   0.020339   0.000000  23.899786   5.779950   # H_
 373 1 3  -0.199654   0.000000  20.387168   4.827832   # C_3
 374 1 4  -0.021367   0.000000  21.116050   2.996214   # H_
 375 1 3   0.124188   0.000000  20.691093   6.204907   # C_3
 376 1 3  -0.044579   0.000000  19.652907   7.243093   # C_3
 377 1 4   0.123348   0.000000  22.337128   7.399090   # H_
 378 1 3   0.048521   0.000000  19.956832   8.620168   # C_3
 379 1 4   0.083208   0.000000  19.496910   4.558872   # H_
 380 1 3  -0.068561   0.000000  18.275832   6.939168   # C_3
 381 1 3  -0.025289   0.000000  18.983197   9.556149   # C_3
 382 1 5  -0.071184   0.394295  21.322342   9.160509   # N_3
 383 1 3   0.019806   0.000000  17.339851   7.912803   # C_3
 384 1 4   0.035582   0.000000  18.006872   6.048910   # H_
 385 1 3  -0.124026   0.000000  17.657224   9.238776   # C_3
 386 1 3   0.468366   0.000000  16.600211  10.295789   # C_3
 387 1 4   0.055995   0.000000  19.227950  10.451786   # H_
 388 1 4   0.020049   0.000000  16.444214   7.668050   # H_
 389 1 2  -0.670495   0.000000  17.014410  11.514178   # O_3
 390 1 2  -0.673650   0.000000  15.381822   9.881590   # O_3
 391 1 5  -0.111624   0.095481  21.553379  10.331023   # N_3
 392 1 5   0.100791  26.705845  21.810235  11.461999   # N_3
 393 1 2  -0.628619   3.566410  13.448000  15.381822   # O_3
 394 1 3   0.519267   3.152211  13.448000  16.600211   # C_3
 395 1 2  -0.639358   1.933822  13.448000  17.014410   # O_3
 396 1 3  -0.225799   4.209224  13.448000  17.657224   # C_3
 397 1 3   0.171169   5.535197  13.448000  17.339851   # C_3
 398 1 3   0.170529   3.891851  13.448000  18.983197   # C_3
 399 1 3  -0.218029   6.508832  13.448000  18.275832   # C_3
 400 1 4  -0.002857   5.779950  13.448000  16.444214   # H_
 401 1 3  -0.214406   4.827832  13.448000  19.956832   # C_3
 402 1 4  -0.006256   2.996214  13.448000  19.227950   # H_
 403 1 3   0.161241   6.204907  13.448000  19.652907   # C_3
 404 1 3  -0.061748   7.243093  13.448000  20.691093   # C_3
 405 1 4   0.132661   7.399090  13.448000  18.006872   # H_
 406 1 3   0.096031   8.620168  13.448000  20.387168   # C_3
 407 1 4   0.119847   4.558872  13.448000  20.847090   # H_
 408 1 3  -0.010028   6.939168  13.448000  22.068168   # C_3
 409 1 3  -0.060159   9.556149  13.448000  21.360803   # C_3
 410 1 5  -0.084645   9.179605  13.448000  18.980238   # N_3
 411 1 3  -0.009723   7.912803  13.448000  23.004149   # C_3
 412 1 4   0.055684   6.048910  13.448000  22.337128   # H_
 413 1 3  -0.049487   9.238776  13.448000  22.686776   # C_3
 414 1 3   0.455809  10.295789  13.448000  23.743789   # C_3
 415 1 4   0.096742  10.451786  13.448000  21.116050   # H_
 416 1 4   0.091554   7.668050  13.448000  23.899786   # H_
 417 1 2  -0.607246  11.514178  13.448000  23.329590   # O_3
 418 1 2  -0.543003   9.881590  13.448000  24.962178   # O_3
 419 1 5  -0.033005  10.404180  13.448000  18.921605   # N_3
 420 1 5  -0.055408  11.598631  13.448000  18.938280   # N_3
 421 1 2  -0.618754  23.329590  13.448000  15.381822   # O_3
 422 1 3   0.503442  23.743789  13.448000  16.600211   # C_3
 423 1 2  -0.551045  24.962178  13.448000  17.014410   # O_3
 424 1 3  -0.183152  22.686776  13.448000  17.657224   # C_3
 425 1 3   0.148792  21.360803  13.448000  17.339851   # C_3
 426 1 3   0.148546  23.004149  13.448000  18.983197   # C_3
 427 1 3  -0.191875  20.387168  13.448000  18.275832   # C_3
 428 1 4   0.008591  21.116050  13.448000  16.444214   # H_
 429 1 3  -0.179191  22.068168  13.448000  19.956832   # C_3
 430 1 4   0.046525  23.899786  13.448000  19.227950   # H_
 431 1 3   0.150359  20.691093  13.448000  19.652907   # C_3
 432 1 3  -0.045643  19.652907  13.448000  20.691093   # C_3
 433 1 4   0.126496  19.496910  13.448000  18.006872   # H_
 434 1 3   0.093039  18.275832  13.448000  20.387168   # C_3
 435 1 4   0.134289  22.337128  13.448000  20.847090   # H_
 436 1 3  -0.017668  19.956832  13.448000  22.068168   # C_3
 437 1 3  -0.053475  17.339851  13.448000  21.360803   # C_3
 438 1 5  -0.081827  17.716395  13.448000  18.980238   # N_3
 439 1 3   0.002463  18.983197  13.448000  23.004149   # C_3
 440 1 4   0.075156  20.847090  13.448000  22.337128   # H_
 441 1 3  -0.053053  17.657224  13.448000  22.686776   # C_3
 442 1 3   0.458265  16.600211  13.448000  23.743789   # C_3
 443 1 4   0.095354  16.444214  13.448000  21.116050   # H_
 444 1 4   0.094375  19.227950  13.448000  23.899786   # H_
 445 1 2  -0.607218  15.381822  13.448000  23.329590   # O_3
 446 1 2  -0.541847  17.014410  13.448000  24.962178   # O_3
 447 1 5  -0.032003  16.491820  13.448000  18.921605   # N_3
 448 1 5  -0.054631  15.297369  13.448000  18.938280   # N_3
 449 1 2  -0.618858  23.329590  13.448000  11.514178   # O_3
 450 1 3   0.501056  23.743789  13.448000  10.295789   # C_3
 451 1 2  -0.553329  24.962178  13.448000   9.881590   # O_3
 452 1 3  -0.179871  22.686776  13.448000   9.238776   # C_3
 453 1 3   0.140480  21.360803  13.448000   9.556149   # C_3
 454 1 3   0.137135  23.004149  13.448000   7.912803   # C_3
 455 1 3  -0.185768  20.387168  13.448000   8.620168   # C_3
 456 1 4   0.010396  21.116050  13.448000  10.451786   # H_
 457 1 3  -0.173148  22.068168  13.448000   6.939168   # C_3
 458 1 4   0.041015  23.899786  13.448000   7.668050   # H_
 459 1 3   0.135580  20.691093  13.448000   7.243093   # C_3
 460 1 3  -0.039524  19.652907  13.448000   6.204907   # C_3
 461 1 4   0.122514  19.496910  13.448000   8.889128   # H_
 462 1 3   0.077996  18.275832  13.448000   6.508832   # C_3
 463 1 4   0.114733  22.337128  13.448000   6.048910   # H_
 464 1 3  -0.047221  19.956832  13.448000   4.827832   # C_3
 465 1 3  -0.038695  17.339851  13.448000   5.535197   # C_3
 466 1 5  -0.082123  17.716395  13.448000   7.915762   # N_3
 467 1 3   0.019973  18.983197  13.448000   3.891851   # C_3
 468 1 4   0.060267  20.847090  13.448000   4.558872   # H_
 469 1 3  -0.090293  17.657224  13.448000   4.209224   # C_3
 470 1 3   0.472601  16.600211  13.448000   3.152211   # C_3
 471 1 4   0.087297  16.444214  13.448000   5.779950   # H_
 472 1 4   0.045604  19.227950  13.448000   2.996214   # H_
 473 1 2  -0.616481  15.381822  13.448000   3.566410   # O_3
 474 1 2  -0.628920  17.014410  13.448000   1.933822   # O_3
 475 1 5  -0.033581  16.491820  13.448000   7.974395   # N_3
 476 1 5  -0.056086  15.297369  13.448000   7.957720   # N_3
 477 1 2  -0.628802   3.566410  13.448000  11.514178   # O_3
 478 1 3   0.516949   3.152211  13.448000  10.295789   # C_3
 479 1 2  -0.642212   1.933822  13.448000   9.881590   # O_3
 480 1 3  -0.222776   4.209224  13.448000   9.238776   # C_3
 481 1 3   0.162913   5.535197  13.448000   9.556149   # C_3
 482 1 3   0.159121   3.891851  13.448000   7.912803   # C_3
 483 1 3  -0.212030   6.508832  13.448000   8.620168   # C_3
 484 1 4  -0.001107   5.779950  13.448000  10.451786   # H_
 485 1 3  -0.208532   4.827832  13.448000   6.939168   # C_3
 486 1 4  -0.012267   2.996214  13.448000   7.668050   # H_