 (written by mofun)

1296 atoms
0 bonds
0 angles
0 dihedrals
0 impropers

5 atom types
   0.000000  20.700400 xlo xhi
   0.000000  20.700400 ylo yhi
   0.000000  20.700400 zlo zhi

Masses

 1 91.2240   # Zr3+4
 2 15.9994   # O_3
 3 12.0107   # C_3
 4 14.0067   # N_3
 5 1.0079   # H_

Pair Coeffs

 1   0.069000   2.783168 # Zr3+4
 2   0.060000   3.118146 # O_3
 3   0.105000   3.430851 # C_3
 4   0.069000   3.260689 # N_3
 5   0.044000   2.571134 # H_

Atoms

 1 1 1   3.173280   2.481771   0.000000   0.000000   # Zr3+4
 2 1 1   3.193100   2.481771  10.350200  10.350200   # Zr3+4
 3 1 1   3.182190  12.831971   0.000000  10.350200   # Zr3+4
 4 1 1   3.183060  12.831971  10.350200   0.000000   # Zr3+4
 5 1 1   3.174600  18.218629   0.000000   0.000000   # Zr3+4
 6 1 1   3.190830  18.218629  10.350200  10.350200   # Zr3+4
 7 1 1   3.182030   7.868429   0.000000  10.350200   # Zr3+4
 8 1 1   3.182110   7.868429  10.350200   0.000000   # Zr3+4
 9 1 1   3.173030   0.000000   2.481771   0.000000   # Zr3+4
 10 1 1   3.147030   0.000000  12.831971  10.350200   # Zr3+4
 11 1 1   3.190420  10.350200   2.481771  10.350200   # Zr3+4
 12 1 1   3.186770  10.350200  12.831971   0.000000   # Zr3+4
 13 1 1   3.172300   0.000000  18.218629   0.000000   # Zr3+4
 14 1 1   3.214330   0.000000   7.868429  10.350200   # Zr3+4
 15 1 1   3.191880  10.350200  18.218629  10.350200   # Zr3+4
 16 1 1   3.181400  10.350200   7.868429   0.000000   # Zr3+4
 17 1 1   3.203580   0.000000   0.000000   2.481771   # Zr3+4
 18 1 1   3.180350   0.000000  10.350200  12.831971   # Zr3+4
 19 1 1   3.147590  10.350200   0.000000  12.831971   # Zr3+4
 20 1 1   3.191000  10.350200  10.350200   2.481771   # Zr3+4
 21 1 1   3.139870   0.000000   0.000000  18.218629   # Zr3+4
 22 1 1   3.181260   0.000000  10.350200   7.868429   # Zr3+4
 23 1 1   3.214220  10.350200   0.000000   7.868429   # Zr3+4
 24 1 1   3.191770  10.350200  10.350200  18.218629   # Zr3+4
 25 1 2  -1.307730   1.161292   9.188908   9.188908   # O_3
 26 1 2  -1.237960  11.511492  19.539108   9.188908   # O_3
 27 1 2  -1.348510  11.511492   9.188908  19.539108   # O_3
 28 1 2  -1.307600   9.188908   1.161292   9.188908   # O_3
 29 1 2  -1.345710   9.188908  11.511492  19.539108   # O_3
 30 1 2  -1.206200  19.539108  19.539108   1.161292   # O_3
 31 1 2  -1.236100  19.539108   9.188908  11.511492   # O_3
 32 1 2  -1.347690   1.161292   1.161292   1.161292   # O_3
 33 1 2  -1.410600  11.511492  11.511492   1.161292   # O_3
 34 1 2  -1.361280  19.539108   1.161292   1.161292   # O_3
 35 1 2  -1.458730  19.539108  11.511492  11.511492   # O_3
 36 1 2  -1.534400   9.188908   1.161292  11.511492   # O_3
 37 1 2  -1.419030   9.188908  11.511492   1.161292   # O_3
 38 1 2  -1.367910   1.161292  19.539108   1.161292   # O_3
 39 1 2  -1.405110   1.161292   9.188908  11.511492   # O_3
 40 1 2  -1.464460  11.511492  19.539108  11.511492   # O_3
 41 1 2  -1.421270  11.511492   9.188908   1.161292   # O_3
 42 1 2  -1.354510  19.539108  19.539108  19.539108   # O_3
 43 1 2  -1.321690  19.539108   9.188908   9.188908   # O_3
 44 1 2  -1.325470   9.188908  19.539108   9.188908   # O_3
 45 1 2  -1.354310   9.188908   9.188908  19.539108   # O_3
 46 1 2  -1.503060   1.161292   1.161292  19.539108   # O_3
 47 1 2  -1.534420   1.161292  11.511492   9.188908   # O_3
 48 1 2  -1.402320  11.511492   1.161292   9.188908   # O_3
 49 1 3   0.518615   3.179581   0.000000  17.520819   # C_3
 50 1 2  -0.755020   3.528590   0.000000  18.727859   # O_3
 51 1 2  -0.788722   1.972541   0.000000  17.171810   # O_3
 52 1 3  -0.146152   4.243582   0.000000  16.456818   # C_3
 53 1 3  -0.013890   3.816533   0.000000  15.162836   # C_3
 54 1 4  -0.156316   3.132592   1.610905  15.570427   # N_3
 55 1 5   0.004411   4.580585   0.000000  13.051809   # H_
 56 1 3   0.004634   4.812636   0.000000  14.167768   # C_3
 57 1 3  -0.197260   6.106618   0.000000  14.593782   # C_3
 58 1 3   0.062470   6.532632   0.000000  15.887764   # C_3
 59 1 3  -0.039122   5.537564   0.000000  16.883867   # C_3
 60 1 5   0.017501   5.769615   0.000000  17.999826   # H_
 61 1 4  -0.158666   7.764306   0.861551  16.316262   # N_3
 62 1 2  -0.791538   8.377452   0.000000  13.878790   # O_3
 63 1 3   0.538869   7.170619   0.000000  13.529781   # C_3
 64 1 2  -0.776471   6.821610   0.000000  12.322741   # O_3
 65 1 5   0.074062   2.190516   2.006490  15.436702   # H_
 66 1 3   0.079286   3.681359   2.517790  16.705223   # C_3
 67 1 5   0.018377   3.583032   3.368783  16.138860   # H_
 68 1 3  -0.116154   5.150260   2.670559  17.340725   # C_3
 69 1 3  -0.174126   2.838025   2.873216  17.794685   # C_3
 70 1 3  -0.079420   4.384552   4.977618  17.760736   # C_3
 71 1 3  -0.049791   5.510446   4.093090  17.562840   # C_3
 72 1 5   0.058580   5.947432   2.297744  16.797133   # H_
 73 1 5   0.074688   5.233061   2.175198  18.320682   # H_
 74 1 5   0.063848   5.934805   4.207563  18.482973   # H_
 75 1 5   0.025164   6.263734   4.430921  16.819903   # H_
 76 1 3  -0.026355   2.958294   4.400077  17.969603   # C_3
 77 1 5   0.047207   2.414702   4.757987  17.138896   # H_
 78 1 5   0.083803   2.530831   4.788210  18.857029   # H_
 79 1 5   0.106103   3.245823   2.409527  18.592064   # H_
 80 1 5   0.059443   4.572511   5.895888  18.312816   # H_
 81 1 5   0.080018   2.001522   2.355292  17.706708   # H_
 82 1 5   0.045630   4.406701   5.236373  16.789887   # H_
 83 1 3   0.006262   9.087269   0.378196  16.118366   # C_3
 84 1 5   0.080824   7.773000   1.868625  16.140930   # H_
 85 1 3  -0.253276  10.146301   0.615837  17.180297   # C_3
 86 1 5   0.000451   9.485130   0.954495  15.378948   # H_
 87 1 3   0.009752   8.993910  19.641161  15.826077   # C_3
 88 1 5   0.049351   8.376831  19.042298  15.115018   # H_
 89 1 3  -0.060249   8.733292  19.053683  17.002274   # C_3
 90 1 5   0.027560   9.981940  19.708644  15.508533   # H_
 91 1 3  -0.146043   9.928533  19.263378  17.956976   # C_3
 92 1 5   0.036672   8.545125  17.967326  16.869170   # H_
 93 1 5   0.089978   7.863875  19.462723  17.270137   # H_
 94 1 3   0.094713  10.955894  20.158464  17.547108   # C_3
 95 1 5   0.072647  10.244007  18.382990  18.173088   # H_
 96 1 5   0.078781   9.772659  19.723755  18.863032   # H_
 97 1 5   0.026249  11.618307  20.451167  18.369328   # H_
 98 1 5   0.024659  11.611061  19.734312  16.726544   # H_
 99 1 5   0.071831   9.768933   0.949941  18.100430   # H_
 100 1 5   0.081137  10.941610   1.082217  16.764633   # H_
 101 1 3   0.538780   3.179581  10.350200   7.170619   # C_3
 102 1 2  -0.655146   3.528590  10.350200   8.377659   # O_3
 103 1 2  -0.672039   1.972541  10.350200   6.821610   # O_3
 104 1 3  -0.159065   4.243582  10.350200   6.106618   # C_3
 105 1 3   0.077025   3.816533  10.350200   4.812636   # C_3
 106 1 4  -0.159900   2.884187  11.618514   4.680360   # N_3
 107 1 5   0.037015   4.580585  10.350200   2.701609   # H_
 108 1 3   0.000850   4.812636  10.350200   3.817568   # C_3
 109 1 3  -0.185204   6.106618  10.350200   4.243582   # C_3
 110 1 3   0.102909   6.532632  10.350200   5.537564   # C_3
 111 1 3  -0.023861   5.537564  10.350200   6.533667   # C_3
 112 1 5   0.043900   5.769615  10.350200   7.649626   # H_
 113 1 4  -0.187555   7.740501  11.137436   5.842274   # N_3
 114 1 2  -0.744553   8.377452  10.350200   3.528590   # O_3
 115 1 3   0.538142   7.170619  10.350200   3.179581   # C_3
 116 1 2  -0.746026   6.821610  10.350200   1.972541   # O_3
 117 1 5   0.088993   1.959086  11.617271   5.118174   # H_
 118 1 3   0.056486   3.607252  12.869232   5.289159   # C_3
 119 1 5   0.020199   3.908650  13.320707   4.384966   # H_
 120 1 3  -0.113876   4.876186  12.861366   6.193353   # C_3
 121 1 3  -0.132327   2.810493  13.833663   6.053418   # C_3
 122 1 3  -0.079987   4.560712  14.735166   7.577588   # C_3
 123 1 3  -0.053175   5.564682  13.874443   7.142052   # C_3
 124 1 5   0.068311   5.696129  12.457501   5.733390   # H_
 125 1 5   0.064473   4.514964  12.349031   7.087403   # H_
 126 1 5   0.034475   5.851175  13.436216   8.029478   # H_
 127 1 5   0.030448   6.376137  14.525057   6.929045   # H_
 128 1 3  -0.037127   3.658589  15.034080   6.550642   # C_3
 129 1 5   0.029623   3.242925  15.892318   7.025302   # H_
 130 1 5   0.036721   4.271942  15.328232   5.733183   # H_
 131 1 5   0.061829   2.338938  13.345341   6.926768   # H_
 132 1 5   0.051954   3.901197  14.133612   8.197979   # H_
 133 1 5   0.079033   2.154291  14.137545   5.341531   # H_
 134 1 5   0.044750   4.973064  15.624041   8.050593   # H_
 135 1 3   0.151482   8.957477  10.447699   6.007877   # C_3
 136 1 5   0.096862   8.001119  11.762381   5.073461   # H_
 137 1 3  -0.208038   9.781767  11.272403   6.929666   # C_3
 138 1 5  -0.052909   9.532327  10.260981   5.139288   # H_
 139 1 3  -0.150948   8.805743   9.136743   6.544224   # C_3
 140 1 5   0.060988   7.914798   9.251009   7.079537   # H_
 141 1 3  -0.051337  10.153339   8.916283   7.419437   # C_3
 142 1 5   0.060528   8.527737   8.479712   5.669840   # H_
 143 1 3  -0.098007  11.319807   9.478506   6.553333   # C_3
 144 1 5   0.044744  10.335089   7.965307   7.621473   # H_
 145 1 5   0.031687  10.134709   9.413714   8.321354   # H_
 146 1 3  -0.005763  11.166831  10.996052   6.441550   # C_3
 147 1 5   0.046590  11.361415   9.293859   5.451036   # H_
 148 1 5   0.054995  12.217997   9.140469   6.841275   # H_
 149 1 5   0.031169  11.823240  11.524534   7.042276   # H_
 150 1 5   0.020290  11.201193  11.275922   5.408187   # H_
 151 1 5   0.079459   9.866432  11.244871   7.923285   # H_
 152 1 5   0.083844   9.262394  12.107664   6.828441   # H_
 153 1 3   0.527654  13.529781   0.000000   7.170619   # C_3
 154 1 2  -0.697585  13.878790   0.000000   8.377659   # O_3
 155 1 2  -0.696827  12.322741   0.000000   6.821610   # O_3
 156 1 3  -0.172586  14.593782   0.000000   6.106618   # C_3
 157 1 3   0.030651  14.166733   0.000000   4.812636   # C_3
 158 1 4  -0.150298  13.223416   1.315096   4.725280   # N_3
 159 1 5   0.013727  14.930785   0.000000   2.701609   # H_
 160 1 3  -0.011755  15.162629   0.000000   3.817568   # C_3
 161 1 3  -0.183648  16.456611   0.000000   4.243582   # C_3
 162 1 3   0.056278  16.882832   0.000000   5.537564   # C_3
 163 1 3  -0.022745  15.887764   0.000000   6.533667   # C_3
 164 1 5   0.014601  16.119815   0.000000   7.649626   # H_
 165 1 4  -0.146603  18.120095   0.900674   5.819089   # N_3
 166 1 2  -0.662737  18.727652   0.000000   3.528590   # O_3
 167 1 3   0.519422  17.520612   0.000000   3.179581   # C_3
 168 1 2  -0.678047  17.171603   0.000000   1.972541   # O_3
 169 1 5   0.062431  12.238490   0.995482   4.698370   # H_
 170 1 3   0.057455  13.421104   2.368954   5.955298   # C_3
 171 1 5   0.028601  12.661193   2.274560   6.758267   # H_
 172 1 3  -0.107010  14.879862   2.475561   6.709828   # C_3
 173 1 3  -0.161771  13.192365   3.751119   5.549156   # C_3
 174 1 3  -0.102861  14.890005   4.924211   7.056352   # C_3
 175 1 3  -0.045390  15.254953   3.620293   7.573862   # C_3
 176 1 5   0.063391  15.704151   2.278286   6.038307   # H_
 177 1 5   0.067877  14.952106   1.801142   7.578623   # H_
 178 1 5   0.052095  14.518847   3.512858   8.272915   # H_
 179 1 5   0.031594  16.280658   3.544736   7.946884   # H_
 180 1 3  -0.021673  13.376391   4.823814   6.603635   # C_3
 181 1 5   0.038985  12.776080   4.450793   7.451109   # H_
 182 1 5   0.027389  12.995504   5.825093   6.359784   # H_
 183 1 5   0.082395  12.518153   3.965783   4.821330   # H_
 184 1 5   0.051405  15.062646   5.630923   7.812124   # H_
 185 1 5   0.079597  14.059298   3.897057   5.106168   # H_
 186 1 5   0.048153  15.575395   5.167027   6.283399   # H_
 187 1 3  -0.066885  19.408902   0.233501   5.737116   # C_3
 188 1 5   0.103562  18.197308   1.549632   5.050070   # H_
 189 1 3   0.008730  20.358222   0.354598   6.869428   # C_3
 190 1 5   0.016632  20.042127   0.669658   4.993764   # H_
 191 1 3   0.025689  19.033397  19.544076   5.649346   # C_3
 192 1 5   0.072420  18.362497  19.040435   4.888606   # H_
 193 1 3  -0.161133  18.422528  19.246197   6.983280   # C_3
 194 1 5   0.082240  19.932622  19.480732   5.244860   # H_
 195 1 3   0.257116  18.592271  20.556946   8.124079   # C_3
 196 1 5   0.096262  19.107918  18.627669   6.823473   # H_
 197 1 5   0.073515  17.452714  18.729929   6.997563   # H_
 198 1 3  -0.342750  19.902814   0.323547   8.176865   # C_3
 199 1 5   0.004583  18.627255  20.596484   9.135087   # H_
 200 1 5  -0.071882  17.924062   0.686839   7.948747   # H_
 201 1 5   0.134629  19.832018   1.211594   8.593150   # H_
 202 1 5   0.082646   0.067069  20.675146   8.803052   # H_
 203 1 5   0.074747  20.574335   1.241610   6.779174   # H_
 204 1 5   0.015984   0.484182  20.389066   6.840447   # H_
 205 1 3   0.531647  13.529781  10.350200  17.520819   # C_3
 206 1 2  -0.714583  13.878790  10.350200  18.727859   # O_3
 207 1 2  -0.738580  12.322741  10.350200  17.171810   # O_3
 208 1 3  -0.154995  14.593782  10.350200  16.456818   # C_3
 209 1 3   0.072480  14.166733  10.350200  15.162836   # C_3
 210 1 4  -0.154904  13.305182  11.706076  15.219555   # N_3
 211 1 5   0.032214  14.930785  10.350200  13.051809   # H_
 212 1 3  -0.006107  15.162629  10.350200  14.167768   # C_3
 213 1 3  -0.176155  16.456611  10.350200  14.593782   # C_3
 214 1 3   0.100024  16.882832  10.350200  15.887764   # C_3
 215 1 3  -0.019685  15.887764  10.350200  16.883867   # C_3
 216 1 5   0.046541  16.119815  10.350200  17.999826   # H_
 217 1 4  -0.169019  18.007485  11.289584  16.045915   # N_3
 218 1 2  -0.624541  18.727652  10.350200  13.878790   # O_3
 219 1 3   0.540658  17.520612  10.350200  13.529781   # C_3
 220 1 2  -0.662628  17.171603  10.350200  12.322741   # O_3
 221 1 5   0.085487  12.306802  11.630313  15.484727   # H_
 222 1 3   0.047997  13.965732  12.886620  15.886522   # C_3
 223 1 5   0.021939  13.194021  13.670751  15.626318   # H_
 224 1 3  -0.124118  15.482450  13.249498  15.517434   # C_3
 225 1 3  -0.074450  13.862230  13.076236  17.397030   # C_3
 226 1 3  -0.089506  15.707878  14.833493  17.559528   # C_3
 227 1 3  -0.034612  16.409621  13.886449  16.603584   # C_3
 228 1 5   0.048692  15.666477  13.815447  14.595852   # H_
 229 1 5   0.074913  15.888592  12.377597  15.257644   # H_
 230 1 5   0.036498  16.825078  13.079962  17.270344   # H_
 231 1 5   0.042660  17.243847  14.430042  16.090421   # H_
 232 1 3  -0.077310  14.205442  14.552174  17.682903   # C_3
 233 1 5   0.072283  13.937993  14.864336  18.562256   # H_
 234 1 5   0.040210  13.581118  15.131578  17.043674   # H_
 235 1 5  -0.020462  12.868611  12.883515  17.747074   # H_
 236 1 5   0.059029  15.869962  15.833115  17.338241   # H_
 237 1 5   0.056198  14.605581  12.548168  18.048265   # H_
 238 1 5   0.078949  16.242776  14.709290  18.448403   # H_
 239 1 3   0.118715  19.343489  11.113010  16.424732   # C_3
 240 1 5   0.092141  17.907088  12.197090  15.510810   # H_
 241 1 3  -0.334205  19.300432  11.789085  17.689941   # C_3
 242 1 5   0.046753  19.762465  11.571317  15.620522   # H_
 243 1 3   0.031642  20.156600   9.856081  16.205515   # C_3
 244 1 5   0.057838  19.438918   9.119768  15.826698   # H_
 245 1 3   0.045917   0.574436   9.449940  17.278210   # C_3
 246 1 5  -0.109473   0.167052  10.027481  15.390954   # H_
 247 1 3  -0.638623   0.332241  10.103658  18.587717   # C_3
 248 1 5   0.015783   1.565778   9.593600  16.964806   # H_
 249 1 5  -0.007182   0.579404   8.488613  17.701740   # H_
 250 1 3   0.466531  20.493189  11.386876  18.425219   # C_3
 251 1 5   0.177569   1.214699  10.266570  19.141867   # H_
 252 1 5   0.275507  20.407075   9.605607  19.183682   # H_
 253 1 5  -0.040169  20.311439  11.796123  19.430223   # H_
 254 1 5  -0.128486   0.557669  11.824275  17.823251   # H_
 255 1 5   0.109569  18.374503  11.746649  18.230428   # H_
 256 1 5   0.137163  19.295464  12.835283  17.481902   # H_
 257 1 3   0.523947  17.520819   0.000000  17.520819   # C_3
 258 1 2  -0.738734  17.171810   0.000000  18.727859   # O_3
 259 1 2  -0.740200  18.727859   0.000000  17.171810   # O_3
 260 1 3  -0.176684  16.456818   0.000000  16.456818   # C_3
 261 1 3   0.058575  16.883867   0.000000  15.162836   # C_3
 262 1 4  -0.160228  18.211384   0.739625  14.859989   # N_3
 263 1 5   0.016921  16.119815   0.000000  13.051809   # H_
 264 1 3  -0.028986  15.887971   0.000000  14.167768   # C_3
 265 1 3  -0.183372  14.593989   0.000000  14.593782   # C_3
 266 1 3   0.056211  14.167768   0.000000  15.887764   # C_3
 267 1 3  -0.014678  15.162836   0.000000  16.883867   # C_3
 268 1 5   0.006892  14.930785   0.000000  17.999826   # H_
 269 1 4  -0.155804  13.075408   0.982234  16.250849   # N_3
 270 1 2  -0.791168  12.322948   0.000000  13.878790   # O_3
 271 1 3   0.527064  13.529988   0.000000  13.529781   # C_3
 272 1 2  -0.774042  13.878997   0.000000  12.322741   # O_3
 273 1 5   0.100747  18.552319   1.558326  15.414760   # H_
 274 1 3   0.016856  19.006693   0.365569  13.722502   # C_3
 275 1 5  -0.005062  18.233119   0.326652  13.024692   # H_
 276 1 3  -0.079220  19.750459  19.906126  14.214137   # C_3
 277 1 3  -0.145161  19.969262   1.361879  12.934438   # C_3
 278 1 3  -0.907340   1.142869   0.205969  13.933853   # C_3
 279 1 3   0.355508   0.116750  20.572472  14.929128   # C_3
 280 1 5   0.098741  20.028465  19.244541  13.414894   # H_
 281 1 5   0.109271  19.168570  19.330448  15.000545   # H_
 282 1 5  -0.093367  20.439368   0.563672  15.639566   # H_
 283 1 5  -0.102407   0.458928  19.852926  15.440842   # H_
 284 1 3   0.218432   0.767778   1.297294  13.118878   # C_3
 285 1 5  -0.045794   1.180337   2.234608  13.498110   # H_
 286 1 5  -0.080887   1.187996   1.201244  12.116565   # H_
 287 1 5   0.056865  19.757290   1.264587  11.865469   # H_
 288 1 5   0.318248   1.646096  20.292602  13.298558   # H_
 289 1 5   0.098388  19.770124   2.316375  13.236457   # H_
 290 1 5   0.345426   1.807352   0.493084  14.412653   # H_
 291 1 3   0.055796  13.684206   2.334177  16.511260   # C_3
 292 1 5   0.040042  12.885378   0.696361  17.232876   # H_
 293 1 3  -0.116746  14.083517   2.805318  17.923855   # C_3
 294 1 5   0.011526  12.795538   2.972370  16.323300   # H_
 295 1 3  -0.137689  14.844050   2.727485  15.615968   # C_3
 296 1 5   0.068075  14.946103   2.196726  14.735166   # H_
 297 1 3  -0.040651  16.219798   3.159088  16.179640   # C_3
 298 1 5   0.062224  14.391332   3.549291  15.371496   # H_
 299 1 3  -0.058214  16.254161   3.821915  17.488112   # C_3
 300 1 5   0.030285  16.665892   3.888156  15.498182   # H_
 301 1 5   0.039261  16.908915   2.345355  16.279209   # H_
 302 1 3  -0.054422  14.851088   4.135112  17.852646   # C_3
 303 1 5   0.038522  16.885316   4.764404  17.418559   # H_
 304 1 5   0.042649  16.738550   3.108786  18.225460   # H_
 305 1 5   0.038058  14.199853   4.675599  17.241156   # H_
 306 1 5   0.070534  15.042774   4.833129  18.608418   # H_
 307 1 5   0.069620  14.696249   2.067349  18.321717   # H_
 308 1 5   0.052241  13.259641   2.929521  18.607176   # H_
 309 1 3   0.534147  17.520819  10.350200   7.170619   # C_3
 310 1 2  -0.743852  17.171810  10.350200   8.377659   # O_3
 311 1 2  -0.702349  18.727859  10.350200   6.821610   # O_3
 312 1 3  -0.174112  16.456818  10.350200   6.106618   # C_3
 313 1 3   0.096060  16.883867  10.350200   4.812636   # C_3
 314 1 4  -0.141188  18.143901  11.119013   4.400491   # N_3
 315 1 5   0.032185  16.119815  10.350200   2.701609   # H_
 316 1 3  -0.010045  15.887971  10.350200   3.817568   # C_3
 317 1 3  -0.166990  14.593989  10.350200   4.243582   # C_3
 318 1 3   0.074846  14.167768  10.350200   5.537564   # C_3
 319 1 3   0.004836  15.162836  10.350200   6.533667   # C_3
 320 1 5   0.033797  14.930785  10.350200   7.649626   # H_
 321 1 4  -0.157629  13.483413  11.798814   5.767752   # N_3
 322 1 2  -0.669090  12.322948  10.350200   3.528590   # O_3
 323 1 3   0.544224  13.529988  10.350200   3.179581   # C_3
 324 1 2  -0.676762  13.878997  10.350200   1.972541   # O_3
 325 1 5   0.093727  18.532240  11.927984   4.954434   # H_
 326 1 3  -0.031552  18.451302  11.011371   2.962434   # C_3
 327 1 5   0.023740  17.760529  11.467194   2.270834   # H_
 328 1 3  -0.017615  18.488148   9.598775   2.664762   # C_3
 329 1 3   0.116775  19.836572  11.503005   2.602247   # C_3
 330 1 3   0.275737  20.526517   9.898517   4.200525   # C_3
 331 1 3  -0.149739  19.310782   8.944643   3.666662   # C_3
 332 1 5   0.013774  18.917682   9.492996   1.664519   # H_
 333 1 5   0.018980  17.562219   9.022062   2.672215   # H_
 334 1 5   0.086927  18.739451   8.474537   4.467974   # H_
 335 1 5   0.092177  19.688978   8.126563   3.047099   # H_
 336 1 3  -0.378211   0.299949  10.789255   3.100713   # C_3
 337 1 5   0.107075   1.125067  11.473611   3.293434   # H_
 338 1 5   0.074634   0.673384  10.096620   2.334177   # H_
 339 1 5   0.006799  19.902814  11.317530   1.553979   # H_
 340 1 5  -0.094040   0.701951   9.479127   4.674564   # H_
 341 1 5   0.022361  19.783165  12.481720   2.896814   # H_
 342 1 5  -0.030640  20.166537  10.512698   4.992108   # H_
 343 1 3   0.045929  14.428800  13.009580   5.955505   # C_3
 344 1 5   0.089889  12.946858  12.115116   4.942842   # H_
 345 1 3  -0.117959  13.983741  13.810686   7.114106   # C_3
 346 1 5   0.007769  14.224280  13.591469   5.104512   # H_
 347 1 3  -0.096370  16.007412  12.945823   6.028784   # C_3
 348 1 5   0.048942  16.287075  12.460813   6.963408   # H_
 349 1 3  -0.062157  16.855922  14.146032   6.116968   # C_3
 350 1 5   0.056694  16.341931  12.553344   5.087951   # H_
 351 1 3  -0.071072  16.438188  14.820037   7.377209   # C_3
 352 1 5   0.038260  16.616832  14.824798   5.310481   # H_
 353 1 5   0.040698  17.953250  13.912325   6.083848   # H_
 354 1 3  -0.047831  14.944033  15.024764   7.404326   # C_3
 355 1 5   0.037342  16.886972  15.803513   7.383419   # H_
 356 1 5   0.038141  16.892975  14.226971   8.109175   # H_
 357 1 5   0.038077  14.932441  15.387021   6.436996   # H_
 358 1 5   0.039250  14.458401  15.808274   8.024303   # H_
 359 1 5   0.055408  13.791641  13.101076   7.935498   # H_
 360 1 5   0.055682  13.062780  14.167354   6.818505   # H_
 361 1 3   0.537649   7.170619   0.000000   7.170619   # C_3
 362 1 2  -0.699461   6.821610   0.000000   8.377659   # O_3
 363 1 2  -0.686416   8.377659   0.000000   6.821610   # O_3
 364 1 3  -0.176385   6.106618   0.000000   6.106618   # C_3
 365 1 3   0.052930   6.533667   0.000000   4.812636   # C_3
 366 1 4  -0.149102   7.960132   0.451890   4.418914   # N_3
 367 1 5   0.009237   5.769615   0.000000   2.701609   # H_
 368 1 3  -0.010242   5.537564   0.000000   3.817568   # C_3
 369 1 3  -0.214946   4.243582   0.000000   4.243582   # C_3
 370 1 3   0.099225   3.817568   0.000000   5.537564   # C_3
 371 1 3  -0.037452   4.812636   0.000000   6.533667   # C_3
 372 1 5   0.020057   4.580585   0.000000   7.649626   # H_
 373 1 4  -0.243240   2.464590   0.152769   5.953642   # N_3
 374 1 2  -0.715341   1.972748   0.000000   3.528590   # O_3
 375 1 3   0.547617   3.179581   0.000000   3.179581   # C_3
 376 1 2  -0.717006   3.528590   0.000000   1.972541   # O_3
 377 1 5   0.084953   8.237103   1.345319   4.871218   # H_
 378 1 3  -0.118022   8.050593   0.529516   2.925174   # C_3
 379 1 5   0.046349   7.315107   1.171229   2.450513   # H_
 380 1 3   0.105206   7.998221  19.792273   2.366470   # C_3
 381 1 3   0.057236   9.317871   1.142041   2.340180   # C_3
 382 1 3   0.160874  10.247319  19.838228   3.388241   # C_3
 383 1 3  -0.176935   8.926012  19.050992   3.139837   # C_3
 384 1 5  -0.012509   8.348471  19.685666   1.366019   # H_
 385 1 5   0.016154   7.096925  19.213076   2.452169   # H_
 386 1 5   0.090754   8.460667  18.850819   4.160159   # H_
 387 1 5   0.053891   9.031792  18.083869   2.699332   # H_
 388 1 3  -0.381993  10.472539   0.281525   2.489430   # C_3
 389 1 5   0.085827  11.339058   0.838366   2.821672   # H_
 390 1 5   0.155438  10.597156  20.627742   1.471177   # H_
 391 1 5  -0.040491   9.107348   1.218840   1.260033   # H_
 392 1 5  -0.014317  11.072644  19.149733   3.150394   # H_
 393 1 5   0.001887   9.553235   2.137316   2.714650   # H_
 394 1 5   0.019133  10.326395  20.208144   4.437338   # H_
 395 1 3   0.104194   2.460450   1.523756   6.273256   # C_3
 396 1 5   0.153976   1.821635  20.180406   5.518934   # H_
 397 1 3  -0.127228   2.887499   1.842543   7.706552   # C_3
 398 1 5  -0.022605   1.491257   1.725999   6.250279   # H_
 399 1 3  -0.125272   2.978581   2.455481   5.233889   # C_3
 400 1 5   0.067914   2.804904   2.130278   4.205700   # H_
 401 1 3  -0.059022   4.412083   2.885015   5.554952   # C_3
 402 1 5   0.059543   2.321136   3.268386   5.351053   # H_
 403 1 3  -0.059986   4.629023   3.490294   6.970446   # C_3
 404 1 5   0.038995   4.542910   3.581169   4.802286   # H_
 405 1 5   0.055079   5.100993   2.114339   5.411499   # H_
 406 1 3  -0.076247   3.314341   3.235680   7.725182   # C_3
 407 1 5   0.032005   4.874323   4.565680   7.068359   # H_
 408 1 5   0.046171   5.454141   2.946909   7.512175   # H_
 409 1 5   0.056532   2.621292   3.713031   7.242863   # H_
 410 1 5   0.047538   3.235680   3.614290   8.615920   # H_
 411 1 5   0.067461   3.748221   1.535970   8.218266   # H_
 412 1 5   0.031984   2.103989   1.470349   8.317835   # H_
 413 1 3   0.536982   7.170619  10.350200  17.520819   # C_3
 414 1 2  -0.634467   6.821610  10.350200  18.727859   # O_3
 415 1 2  -0.647225   8.377659  10.350200  17.171810   # O_3
 416 1 3  -0.166230   6.106618  10.350200  16.456818   # C_3
 417 1 3   0.097567   6.533667  10.350200  15.162836   # C_3
 418 1 4  -0.149613   7.739880  11.174697  14.843015   # N_3
 419 1 5   0.039683   5.769615  10.350200  13.051809   # H_
 420 1 3  -0.018379   5.537564  10.350200  14.167768   # C_3
 421 1 3  -0.167221   4.243582  10.350200  14.593782   # C_3
 422 1 3   0.085367   3.817568  10.350200  15.887764   # C_3
 423 1 3  -0.005626   4.812636  10.350200  16.883867   # C_3
 424 1 5   0.041316   4.580585  10.350200  17.999826   # H_
 425 1 4  -0.154619   2.790000  11.438420  16.192267   # N_3
 426 1 2  -0.737767   1.972748  10.350200  13.878790   # O_3
 427 1 3   0.529702   3.179581  10.350200  13.529781   # C_3
 428 1 2  -0.732115   3.528590  10.350200  12.322741   # O_3
 429 1 5   0.078920   7.527079  12.172042  14.850674   # H_
 430 1 3   0.058786   8.090751  10.801055  13.484448   # C_3
 431 1 5   0.003716   7.392320  11.418134  12.964868   # H_
 432 1 3  -0.103044   8.001947   9.159927  13.457537   # C_3
 433 1 3  -0.112221   9.427376  11.288756  13.169180   # C_3
 434 1 3  -0.075982   9.874505   9.743885  15.054573   # C_3
 435 1 3  -0.032492   8.574520   8.722528  14.776774   # C_3
 436 1 5   0.046248   8.629790   8.668500  12.721431   # H_
 437 1 5   0.047028   7.027165   8.721700  13.348860   # H_
 438 1 5   0.052488   7.950403   8.627513  15.673722   # H_
 439 1 5   0.031572   8.530428   7.654594  14.478274   # H_
 440 1 3  -0.029834  10.364897  10.314181  13.811721   # C_3
 441 1 5   0.024015  11.386669  10.694241  13.892245   # H_
 442 1 5   0.026013  10.409196   9.495894  13.095280   # H_
 443 1 5   0.038625   9.610575  11.236798  12.104973   # H_
 444 1 5   0.027696  10.813475   9.381214  15.388056   # H_
 445 1 5   0.045702   9.477678  12.356276  13.380946   # H_
 446 1 5  -0.001480   9.798327  10.638557  15.623834   # H_
 447 1 3   0.080505   3.535421  12.745857  15.991680   # C_3
 448 1 5   0.077011   2.535592  11.352306  17.196029   # H_
 449 1 3  -0.154373   3.337939  13.717948  17.095218   # C_3
 450 1 5   0.002651   3.055586  13.050981  15.060783   # H_
 451 1 3  -0.153679   5.048414  12.932989  15.701874   # C_3
 452 1 5   0.082972   5.340496  12.401403  14.968045   # H_
 453 1 3  -0.014864   6.217572  13.291727  16.686178   # C_3
 454 1 5   0.060271   5.055038  13.885000  15.254539   # H_
 455 1 3  -0.099272   5.758437  14.418657  17.463685   # C_3
 456 1 5   0.027127   7.112657  13.683378  16.145898   # H_
 457 1 5   0.047787   6.523938  12.577770  17.476313   # H_
 458 1 3  -0.019002   4.475012  13.950414  18.028599   # C_3
 459 1 5   0.042342   5.606082  15.379983  16.985299   # H_
 460 1 5   0.073523   6.495786  14.603304  18.228772   # H_
 461 1 5   0.052166   4.143392  14.822728  18.543832   # H_
 462 1 5   0.054337   4.631922  13.032972  18.631602   # H_
 463 1 5   0.073432   2.491293  13.347411  17.567601   # H_
 464 1 5   0.065110   3.175441  14.696249  16.813486   # H_
 465 1 3   0.518037  17.520819   3.179581   0.000000   # C_3
 466 1 2  -0.748687  18.727859   3.528590   0.000000   # O_3
 467 1 2  -0.755005  17.171810   1.972541   0.000000   # O_3
 468 1 3  -0.149516  16.456818   4.243582   0.000000   # C_3
 469 1 3   0.016269  15.162836   3.816533   0.000000   # C_3
 470 1 4  -0.141200  15.271099   3.018946   1.446958   # N_3
 471 1 5   0.006583  13.051809   4.580585   0.000000   # H_
 472 1 3  -0.009130  14.167768   4.812636   0.000000   # C_3
 473 1 3  -0.205719  14.593782   6.106618   0.000000   # C_3
 474 1 3   0.085879  15.887764   6.532632   0.000000   # C_3
 475 1 3  -0.047835  16.883867   5.537564   0.000000   # C_3
 476 1 5   0.018929  17.999826   5.769615   0.000000   # H_
 477 1 4  -0.210995  16.231805   7.928874   0.292290   # N_3
 478 1 2  -0.703540  13.878790   8.377452   0.000000   # O_3
 479 1 3   0.547491  13.529781   7.170619   0.000000   # C_3
 480 1 2  -0.700688  12.322741   6.821610   0.000000   # O_3
 481 1 5   0.058106  14.327782   2.986033   1.847511   # H_
 482 1 3   0.046968  16.333030   3.650102   2.459001   # C_3
 483 1 5   0.034011  16.030804   4.542289   2.337075   # H_
 484 1 3  -0.126501  17.767153   4.364265   2.379304   # C_3
 485 1 3  -0.128553  16.379191   3.094089   3.824813   # C_3
 486 1 3  -0.101195  17.681661   5.394731   4.687399   # C_3
 487 1 3  -0.030261  17.832774   5.708342   3.220568   # C_3
 488 1 5   0.089666  18.333930   4.759229   1.624360   # H_