 (written by mofun)

864 atoms
0 bonds
0 angles
0 dihedrals
0 impropers

5 atom types
   0.000000  20.700400 xlo xhi
   0.000000  20.700400 ylo yhi
   0.000000  20.700400 zlo zhi

Masses

 1 91.2240   # Zr3+4
 2 15.9994   # O_3
 3 12.0107   # C_3
 4 14.0067   # N_3
 5 1.0079   # H_

Pair Coeffs

 1   0.069000   2.783168 # Zr3+4
 2   0.060000   3.118146 # O_3
 3   0.105000   3.430851 # C_3
 4   0.069000   3.260689 # N_3
 5   0.044000   2.571134 # H_

Atoms

 1 1 1   3.169480   2.481771   0.000000   0.000000   # Zr3+4
 2 1 1   3.190240   2.481771  10.350200  10.350200   # Zr3+4
 3 1 1   3.177400  12.831971   0.000000  10.350200   # Zr3+4
 4 1 1   3.181070  12.831971  10.350200   0.000000   # Zr3+4
 5 1 1   3.167950  18.218629   0.000000   0.000000   # Zr3+4
 6 1 1   3.191000  18.218629  10.350200  10.350200   # Zr3+4
 7 1 1   3.179690   7.868429   0.000000  10.350200   # Zr3+4
 8 1 1   3.178510   7.868429  10.350200   0.000000   # Zr3+4
 9 1 1   3.169530   0.000000   2.481771   0.000000   # Zr3+4
 10 1 1   3.145260   0.000000  12.831971  10.350200   # Zr3+4
 11 1 1   3.190210  10.350200   2.481771  10.350200   # Zr3+4
 12 1 1   3.181060  10.350200  12.831971   0.000000   # Zr3+4
 13 1 1   3.167380   0.000000  18.218629   0.000000   # Zr3+4
 14 1 1   3.211350   0.000000   7.868429  10.350200   # Zr3+4
 15 1 1   3.190960  10.350200  18.218629  10.350200   # Zr3+4
 16 1 1   3.179000  10.350200   7.868429   0.000000   # Zr3+4
 17 1 1   3.199680   0.000000   0.000000   2.481771   # Zr3+4
 18 1 1   3.177350   0.000000  10.350200  12.831971   # Zr3+4
 19 1 1   3.145260  10.350200   0.000000  12.831971   # Zr3+4
 20 1 1   3.190810  10.350200  10.350200   2.481771   # Zr3+4
 21 1 1   3.135600   0.000000   0.000000  18.218629   # Zr3+4
 22 1 1   3.179500   0.000000  10.350200   7.868429   # Zr3+4
 23 1 1   3.211910  10.350200   0.000000   7.868429   # Zr3+4
 24 1 1   3.191440  10.350200  10.350200  18.218629   # Zr3+4
 25 1 2  -1.311630   1.161292   9.188908   9.188908   # O_3
 26 1 2  -1.221110  11.511492  19.539108   9.188908   # O_3
 27 1 2  -1.331220  11.511492   9.188908  19.539108   # O_3
 28 1 2  -1.311680   9.188908   1.161292   9.188908   # O_3
 29 1 2  -1.331520   9.188908  11.511492  19.539108   # O_3
 30 1 2  -1.180910  19.539108  19.539108   1.161292   # O_3
 31 1 2  -1.221640  19.539108   9.188908  11.511492   # O_3
 32 1 2  -1.360320   1.161292   1.161292   1.161292   # O_3
 33 1 2  -1.414640  11.511492  11.511492   1.161292   # O_3
 34 1 2  -1.357590  19.539108   1.161292   1.161292   # O_3
 35 1 2  -1.447240  19.539108  11.511492  11.511492   # O_3
 36 1 2  -1.536180   9.188908   1.161292  11.511492   # O_3
 37 1 2  -1.423230   9.188908  11.511492   1.161292   # O_3
 38 1 2  -1.357580   1.161292  19.539108   1.161292   # O_3
 39 1 2  -1.407910   1.161292   9.188908  11.511492   # O_3
 40 1 2  -1.447000  11.511492  19.539108  11.511492   # O_3
 41 1 2  -1.423900  11.511492   9.188908   1.161292   # O_3
 42 1 2  -1.316300  19.539108  19.539108  19.539108   # O_3
 43 1 2  -1.310900  19.539108   9.188908   9.188908   # O_3
 44 1 2  -1.310820   9.188908  19.539108   9.188908   # O_3
 45 1 2  -1.342470   9.188908   9.188908  19.539108   # O_3
 46 1 2  -1.488240   1.161292   1.161292  19.539108   # O_3
 47 1 2  -1.536170   1.161292  11.511492   9.188908   # O_3
 48 1 2  -1.407950  11.511492   1.161292   9.188908   # O_3
 49 1 3   0.532699   3.179581   0.000000  17.520819   # C_3
 50 1 2  -0.732294   3.528590   0.000000  18.727859   # O_3
 51 1 2  -0.793966   1.972541   0.000000  17.171810   # O_3
 52 1 3  -0.162600   4.243582   0.000000  16.456818   # C_3
 53 1 3   0.007409   3.816533   0.000000  15.162836   # C_3
 54 1 4  -0.026577   2.354256  20.582201  14.715293   # N_3
 55 1 5   0.008447   4.580585   0.000000  13.051809   # H_
 56 1 3  -0.008135   4.812636   0.000000  14.167768   # C_3
 57 1 3  -0.162853   6.106618   0.000000  14.593782   # C_3
 58 1 3   0.004223   6.532632   0.000000  15.887764   # C_3
 59 1 3   0.002836   5.537564   0.000000  16.883867   # C_3
 60 1 5   0.031865   5.769615   0.000000  17.999826   # H_
 61 1 5   0.016491   7.648591   0.000000  16.119815   # H_
 62 1 2  -0.791872   8.377452   0.000000  13.878790   # O_3
 63 1 3   0.535608   7.170619   0.000000  13.529781   # C_3
 64 1 2  -0.780064   6.821610   0.000000  12.322741   # O_3
 65 1 5  -0.011955   2.237092   0.793860  14.207099   # H_
 66 1 3   0.039972   2.314512  19.520891  13.714015   # C_3
 67 1 5   0.064525   2.892881  19.686701  12.790777   # H_
 68 1 3  -0.022460   0.965260  19.674281  13.227142   # C_3
 69 1 3  -0.079159   2.776545  18.077452  14.146860   # C_3
 70 1 3  -0.002135   1.593103  17.561598  11.790741   # C_3
 71 1 3  -0.250273   0.641505  18.618147  12.264987   # C_3
 72 1 5   0.056925   0.888461  20.629812  12.643597   # H_
 73 1 5   0.014701   0.251303  19.779853  14.049361   # H_
 74 1 5   0.183089  20.493189  18.126719  12.657674   # H_
 75 1 5   0.063220   0.306159  19.062170  11.309457   # H_
 76 1 3  -0.082592   2.461899  17.093355  13.004612   # C_3
 77 1 5   0.049872   2.122205  16.151901  13.436216   # H_
 78 1 5   0.051258   3.419706  16.890491  12.540302   # H_
 79 1 5   0.076276   3.854207  18.072691  14.221175   # H_
 80 1 5  -0.003279   1.021358  16.721369  11.376526   # H_
 81 1 5   0.066346   2.387377  17.722854  15.138203   # H_
 82 1 5   0.033968   2.252825  17.996307  11.032485   # H_
 83 1 3   0.563843   3.179581  10.350200   7.170619   # C_3
 84 1 2  -0.667464   3.528590  10.350200   8.377659   # O_3
 85 1 2  -0.671904   1.972541  10.350200   6.821610   # O_3
 86 1 3  -0.190987   4.243582  10.350200   6.106618   # C_3
 87 1 3   0.113270   3.816533  10.350200   4.812636   # C_3
 88 1 4  -0.161232   2.346804  10.417476   4.383103   # N_3
 89 1 5   0.038936   4.580585  10.350200   2.701609   # H_
 90 1 3  -0.024446   4.812636  10.350200   3.817568   # C_3
 91 1 3  -0.130649   6.106618  10.350200   4.243582   # C_3
 92 1 3  -0.004447   6.532632  10.350200   5.537564   # C_3
 93 1 3   0.037410   5.537564  10.350200   6.533667   # C_3
 94 1 5   0.026860   5.769615  10.350200   7.649626   # H_
 95 1 5   0.034549   7.648591  10.350200   5.769615   # H_
 96 1 2  -0.744209   8.377452  10.350200   3.528590   # O_3
 97 1 3   0.531374   7.170619  10.350200   3.179581   # C_3
 98 1 2  -0.753105   6.821610  10.350200   1.972541   # O_3
 99 1 5   0.078598   1.826603   9.661912   4.872874   # H_
 100 1 3   0.052746   2.147045   9.915492   3.015220   # C_3
 101 1 5   0.013184   2.647581  10.673126   2.378890   # H_
 102 1 3  -0.179433   0.636744   9.912801   2.648823   # C_3
 103 1 3  -0.087359   2.738663   8.483231   2.915651   # C_3
 104 1 3   0.003225   1.096500   8.115799   0.988237   # C_3
 105 1 3  -0.228140   0.186511   8.637449   1.986410   # C_3
 106 1 5   0.025046   0.477972  10.766485   2.004627   # H_
 107 1 5   0.154199  20.696881  10.082958   3.561090   # H_
 108 1 5   0.055081   0.234122   7.878365   2.701402   # H_
 109 1 5   0.134415  19.886874   8.750473   1.579855   # H_
 110 1 3  -0.082068   2.458587   7.828891   1.608421   # C_3
 111 1 5   0.045827   2.588171   6.753713   1.782718   # H_
 112 1 5   0.027462   3.179167   8.237931   0.923859   # H_
 113 1 5   0.046843   3.835577   8.371449   2.992036   # H_
 114 1 5  -0.038686   0.710231   7.314900   0.349837   # H_
 115 1 5   0.049694   2.277872   7.863461   3.724830   # H_
 116 1 5  -0.018675   1.183442   8.968862   0.398276   # H_
 117 1 3   0.551301  13.529781   0.000000   7.170619   # C_3
 118 1 2  -0.706833  13.878790   0.000000   8.377659   # O_3
 119 1 2  -0.686629  12.322741   0.000000   6.821610   # O_3
 120 1 3  -0.195337  14.593782   0.000000   6.106618   # C_3
 121 1 3   0.078918  14.166733   0.000000   4.812636   # C_3
 122 1 4  -0.208146  12.689759   0.050509   4.466111   # N_3
 123 1 5   0.006954  14.930785   0.000000   2.701609   # H_
 124 1 3  -0.044545  15.162629   0.000000   3.817568   # C_3
 125 1 3  -0.131089  16.456611   0.000000   4.243582   # C_3
 126 1 3  -0.012583  16.882832   0.000000   5.537564   # C_3
 127 1 3   0.024945  15.887764   0.000000   6.533667   # C_3
 128 1 5   0.015738  16.119815   0.000000   7.649626   # H_
 129 1 5   0.037682  17.998791   0.000000   5.769615   # H_
 130 1 2  -0.637805  18.727652   0.000000   3.528590   # O_3
 131 1 3   0.526637  17.520612   0.000000   3.179581   # C_3
 132 1 2  -0.702704  17.171603   0.000000   1.972541   # O_3
 133 1 5   0.072477  12.537611   1.050959   4.212324   # H_
 134 1 3   0.111657  12.531815  19.901572   3.333385   # C_3
 135 1 5   0.051140  13.084102  20.293637   2.498952   # H_
 136 1 3   0.039013  11.114459  20.011698   2.774268   # C_3
 137 1 3  -0.088608  13.053465  18.432050   3.673700   # C_3
 138 1 3  -0.046826  11.758241  17.907916   1.386513   # C_3
 139 1 3  -0.100628  11.124188  19.314508   1.412802   # C_3
 140 1 5  -0.060824  10.933951   0.411524   2.667454   # H_
 141 1 5   0.046825  10.435900  19.590652   3.506855   # H_
 142 1 5   0.045591  10.142782  19.400001   0.885977   # H_
 143 1 5   0.056895  11.800677  19.973402   0.795723   # H_
 144 1 3  -0.072638  12.904008  17.600308   2.419670   # C_3
 145 1 5   0.051933  12.674027  16.590750   2.709889   # H_
 146 1 5   0.056780  13.913153  17.572777   2.019324   # H_
 147 1 5   0.090757  14.146032  18.379678   4.026021   # H_
 148 1 5   0.013766  11.067676  17.068308   1.120927   # H_
 149 1 5   0.073639  12.450049  18.015765   4.493643   # H_
 150 1 5   0.005709  12.304111  17.961737   0.510679   # H_
 151 1 3   0.544215  13.529781  10.350200  17.520819   # C_3
 152 1 2  -0.695229  13.878790  10.350200  18.727859   # O_3
 153 1 2  -0.733545  12.322741  10.350200  17.171810   # O_3
 154 1 3  -0.183537  14.593782  10.350200  16.456818   # C_3
 155 1 3   0.115980  14.166733  10.350200  15.162836   # C_3
 156 1 4  -0.158024  12.704042  10.209437  14.803063   # N_3
 157 1 5   0.048518  14.930785  10.350200  13.051809   # H_
 158 1 3  -0.029146  15.162629  10.350200  14.167768   # C_3
 159 1 3  -0.111355  16.456611  10.350200  14.593782   # C_3
 160 1 3  -0.000923  16.882832  10.350200  15.887764   # C_3
 161 1 3   0.043082  15.887764  10.350200  16.883867   # C_3
 162 1 5   0.050188  16.119815  10.350200  17.999826   # H_
 163 1 5   0.062979  17.998791  10.350200  16.119815   # H_
 164 1 2  -0.606173  18.727652  10.350200  13.878790   # O_3
 165 1 3   0.526803  17.520612  10.350200  13.529781   # C_3
 166 1 2  -0.650814  17.171603  10.350200  12.322741   # O_3
 167 1 5   0.094562  12.305560   9.348508  15.221832   # H_
 168 1 3   0.040574  12.523742   9.949233  13.392124   # C_3
 169 1 5   0.019189  13.013720  10.748890  12.823484   # H_
 170 1 3  -0.093988  11.088997  10.165138  12.877512   # C_3
 171 1 3  -0.093680  13.057605   8.485922  13.065885   # C_3
 172 1 3  -0.067829  11.229967   8.072121  11.347959   # C_3
 173 1 3  -0.059734  10.470676   8.886475  12.368696   # C_3
 174 1 5   0.043372  11.088376  10.879302  12.029830   # H_
 175 1 5   0.044709  10.488686  10.637936  13.681929   # H_
 176 1 5   0.040625  10.552443   8.213505  13.150550   # H_
 177 1 5   0.031451   9.412472   8.938226  12.114702   # H_
 178 1 3  -0.060270  12.701972   7.994287  11.727812   # C_3
 179 1 5   0.039840  12.999023   6.968583  11.864020   # H_
 180 1 5   0.044936  13.296695   8.434999  10.959827   # H_
 181 1 5   0.054558  14.150379   8.321975  13.143512   # H_
 182 1 5   0.028673  10.816166   7.045381  11.202435   # H_
 183 1 5   0.049267  12.564522   7.756233  13.745480   # H_
 184 1 5   0.034004  11.079268   8.642831  10.424100   # H_
 185 1 3   0.518682  17.520819   0.000000  17.520819   # C_3
 186 1 2  -0.734931  17.171810   0.000000  18.727859   # O_3
 187 1 2  -0.754192  18.727859   0.000000  17.171810   # O_3
 188 1 3  -0.178490  16.456818   0.000000  16.456818   # C_3
 189 1 3   0.026437  16.883867   0.000000  15.162836   # C_3
 190 1 4  -0.096846  18.050749  19.825187  14.718398   # N_3
 191 1 5   0.015989  16.119815   0.000000  13.051809   # H_
 192 1 3  -0.022144  15.887971   0.000000  14.167768   # C_3
 193 1 3  -0.167632  14.593989   0.000000  14.593782   # C_3
 194 1 3  -0.009888  14.167768   0.000000  15.887764   # C_3
 195 1 3  -0.012525  15.162836   0.000000  16.883867   # C_3
 196 1 5   0.014759  14.930785   0.000000  17.999826   # H_
 197 1 5   0.002846  13.051809   0.000000  16.119815   # H_
 198 1 2  -0.803439  12.322948   0.000000  13.878790   # O_3
 199 1 3   0.529486  13.529988   0.000000  13.529781   # C_3
 200 1 2  -0.789878  13.878997   0.000000  12.322741   # O_3
 201 1 5   0.154972  18.926790  19.729965  15.296768   # H_
 202 1 3   0.090873  17.445883  18.540934  14.142513   # C_3
 203 1 5   0.046733  16.368013  18.546109  13.971942   # H_
 204 1 3  -0.143841  17.388129  17.457061  15.158696   # C_3
 205 1 3  -0.127394  17.803379  18.129824  12.718326   # C_3
 206 1 3  -0.068387  17.315264  15.676827  13.360452   # C_3
 207 1 3  -0.038645  16.639189  16.199098  14.572254   # C_3
 208 1 5   0.080650  16.886558  17.878935  16.021903   # H_
 209 1 5   0.099364  18.362497  17.135791  15.470444   # H_
 210 1 5   0.032267  16.624905  15.309395  15.193473   # H_
 211 1 5   0.036125  15.614105  16.456818  14.315155   # H_
 212 1 3  -0.061724  18.244298  16.703153  12.780841   # C_3
 213 1 5   0.080269  18.913955  16.925475  13.499145   # H_
 214 1 5   0.072717  18.864275  16.284798  12.009130   # H_
 215 1 5   0.080994  16.955698  18.269138  12.069782   # H_
 216 1 5   0.067414  17.918266  14.769942  13.591262   # H_
 217 1 5   0.094409  18.586475  18.774435  12.356690   # H_
 218 1 5   0.053136  16.511260  15.361767  12.681686   # H_
 219 1 3   0.542489  17.520819  10.350200   7.170619   # C_3
 220 1 2  -0.745212  17.171810  10.350200   8.377659   # O_3
 221 1 2  -0.700243  18.727859  10.350200   6.821610   # O_3
 222 1 3  -0.186854  16.456818  10.350200   6.106618   # C_3
 223 1 3   0.115157  16.883867  10.350200   4.812636   # C_3
 224 1 4  -0.165789  18.036880   9.435449   4.396972   # N_3
 225 1 5   0.041229  16.119815  10.350200   2.701609   # H_
 226 1 3  -0.023923  15.887971  10.350200   3.817568   # C_3
 227 1 3  -0.127812  14.593989  10.350200   4.243582   # C_3
 228 1 3  -0.003665  14.167768  10.350200   5.537564   # C_3
 229 1 3   0.028753  15.162836  10.350200   6.533667   # C_3
 230 1 5   0.023693  14.930785  10.350200   7.649626   # H_
 231 1 5   0.032690  13.051809  10.350200   5.769615   # H_
 232 1 2  -0.661704  12.322948  10.350200   3.528590   # O_3
 233 1 3   0.537426  13.529988  10.350200   3.179581   # C_3
 234 1 2  -0.666400  13.878997  10.350200   1.972541   # O_3
 235 1 5   0.118489  18.872762   9.255770   4.966026   # H_
 236 1 3   0.067296  17.333273   8.168378   3.970130   # C_3
 237 1 5   0.017586  16.274654   8.149747   4.184172   # H_
 238 1 3  -0.148750  17.694495   6.897994   4.782206   # C_3
 239 1 3  -0.103286  17.370741   8.042519   2.474319   # C_3
 240 1 3  -0.069270  17.674416   5.633614   2.560225   # C_3
 241 1 3  -0.030141  17.546901   5.505892   4.071562   # C_3
 242 1 5   0.066160  17.067894   6.884125   5.560127   # H_
 243 1 5   0.106386  18.602000   7.126734   5.252312   # H_
 244 1 5   0.066737  18.238915   4.728592   4.386415   # H_
 245 1 5   0.027447  16.541069   5.113413   4.296782   # H_
 246 1 3  -0.050972  18.294393   6.952436   2.126345   # C_3
 247 1 5   0.082209  19.148077   7.108310   2.740940   # H_
 248 1 5   0.041471  18.641952   7.145157   1.125895   # H_
 249 1 5   0.052555  16.343173   7.790803   2.147459   # H_
 250 1 5   0.079530  18.204346   4.775168   2.129036   # H_
 251 1 5   0.046115  17.677107   8.991633   1.991585   # H_
 252 1 5   0.050946  16.602549   5.590764   2.310786   # H_
 253 1 3   0.533508   7.170619   0.000000   7.170619   # C_3
 254 1 2  -0.716216   6.821610   0.000000   8.377659   # O_3
 255 1 2  -0.695025   8.377659   0.000000   6.821610   # O_3
 256 1 3  -0.177509   6.106618   0.000000   6.106618   # C_3
 257 1 3   0.009581   6.533667   0.000000   4.812636   # C_3
 258 1 4  -0.033696   7.858907  20.112509   4.459901   # N_3
 259 1 5   0.005427   5.769615   0.000000   2.701609   # H_
 260 1 3  -0.017375   5.537564   0.000000   3.817568   # C_3
 261 1 3  -0.166555   4.243582   0.000000   4.243582   # C_3
 262 1 3  -0.007571   3.817568   0.000000   5.537564   # C_3
 263 1 3  -0.011699   4.812636   0.000000   6.533667   # C_3
 264 1 5  -0.005350   4.580585   0.000000   7.649626   # H_
 265 1 5  -0.003628   2.701609   0.000000   5.769615   # H_
 266 1 2  -0.706300   1.972748   0.000000   3.528590   # O_3
 267 1 3   0.539793   3.179581   0.000000   3.179581   # C_3
 268 1 2  -0.711479   3.528590   0.000000   1.972541   # O_3
 269 1 5  -0.012429   8.526495   0.121304   4.018776   # H_
 270 1 3   0.087614   7.440552  18.926997   3.681152   # C_3
 271 1 5   0.043652   6.383175  18.719579   3.479116   # H_
 272 1 3  -0.144349   7.534946  17.761150   4.629437   # C_3
 273 1 3  -0.137667   7.818955  18.895946   2.216392   # C_3
 274 1 3  -0.093128   7.586283  16.402376   2.529175   # C_3
 275 1 3  -0.030117   7.408259  16.402376   4.012566   # C_3
 276 1 5   0.073834   6.665736  17.891563   5.237615   # H_
 277 1 5   0.088690   8.347436  17.932964   5.267010   # H_
 278 1 5   0.040843   8.143537  15.818418   4.445618   # H_
 279 1 5   0.026779   6.438652  15.917573   4.226194   # H_
 280 1 3  -0.021095   8.453836  17.598031   2.002350   # C_3
 281 1 5   0.033023   9.350578  17.780609   2.597279   # H_
 282 1 5   0.013570   8.821475  17.504879   0.968779   # H_
 283 1 5   0.075849   6.987834  19.050992   1.484012   # H_
 284 1 5   0.058035   7.951231  15.419728   2.168988   # H_
 285 1 5   0.092835   8.524011  19.654616   2.059069   # H_
 286 1 5   0.058186   6.534081  16.566116   2.263796   # H_
 287 1 3   0.550986   7.170619  10.350200  17.520819   # C_3
 288 1 2  -0.633372   6.821610  10.350200  18.727859   # O_3
 289 1 2  -0.662835   8.377659  10.350200  17.171810   # O_3
 290 1 3  -0.180396   6.106618  10.350200  16.456818   # C_3
 291 1 3   0.104285   6.533667  10.350200  15.162836   # C_3
 292 1 4  -0.164003   7.660390   9.343540  14.795818   # N_3
 293 1 5   0.039835   5.769615  10.350200  13.051809   # H_
 294 1 3  -0.021941   5.537564  10.350200  14.167768   # C_3
 295 1 3  -0.134816   4.243582  10.350200  14.593782   # C_3
 296 1 3  -0.003846   3.817568  10.350200  15.887764   # C_3
 297 1 3   0.026930   4.812636  10.350200  16.883867   # C_3
 298 1 5   0.025326   4.580585  10.350200  17.999826   # H_
 299 1 5   0.029306   2.701609  10.350200  16.119815   # H_
 300 1 2  -0.753511   1.972748  10.350200  13.878790   # O_3
 301 1 3   0.529137   3.179581  10.350200  13.529781   # C_3
 302 1 2  -0.746110   3.528590  10.350200  12.322741   # O_3
 303 1 5   0.088500   8.502482   9.187459  15.392403   # H_
 304 1 3   0.073074   6.898408   8.102344  14.457573   # C_3
 305 1 5   0.015849   5.840825   8.131945  14.721503   # H_
 306 1 3  -0.170317   7.330840   6.888472  15.215622   # C_3
 307 1 3  -0.115297   6.962373   7.952266  12.926158   # C_3
 308 1 3  -0.090333   7.461459   5.565096  13.072303   # C_3
 309 1 3  -0.018919   7.248038   5.507962  14.514499   # C_3
 310 1 5   0.073968   6.738187   6.910208  15.994371   # H_
 311 1 5   0.079649   8.246211   7.099409  15.630458   # H_
 312 1 5   0.036235   8.003603   4.848448  14.905116   # H_
 313 1 5   0.025323   6.292508   5.013223  14.686727   # H_
 314 1 3  -0.030062   7.999877   6.894889  12.652705   # C_3
 315 1 5   0.035446   8.804708   7.147020  13.309736   # H_
 316 1 5   0.023941   8.424235   7.006878  11.662398   # H_
 317 1 5   0.057540   5.956333   7.649833  12.612340   # H_
 318 1 5   0.059820   8.177900   4.780757  12.756829   # H_
 319 1 5   0.050452   7.183660   8.908624  12.448186   # H_
 320 1 5   0.055050   6.470117   5.369891  12.656225   # H_
 321 1 3   0.540869  17.520819   3.179581   0.000000   # C_3
 322 1 2  -0.729467  18.727859   3.528590   0.000000   # O_3
 323 1 2  -0.773964  17.171810   1.972541   0.000000   # O_3
 324 1 3  -0.195350  16.456818   4.243582   0.000000   # C_3
 325 1 3   0.089550  15.162836   3.816533   0.000000   # C_3
 326 1 4  -0.201590  14.791057   2.392966   0.032500   # N_3
 327 1 5   0.012723  13.051809   4.580585   0.000000   # H_
 328 1 3  -0.042659  14.167768   4.812636   0.000000   # C_3
 329 1 3  -0.141788  14.593782   6.106618   0.000000   # C_3
 330 1 3  -0.009331  15.887764   6.532632   0.000000   # C_3
 331 1 3   0.021393  16.883867   5.537564   0.000000   # C_3
 332 1 5   0.031889  17.999826   5.769615   0.000000   # H_
 333 1 5   0.022285  16.119815   7.648591   0.000000   # H_
 334 1 2  -0.697784  13.878790   8.377452   0.000000   # O_3
 335 1 3   0.534871  13.529781   7.170619   0.000000   # C_3
 336 1 2  -0.699265  12.322741   6.821610   0.000000   # O_3
 337 1 5   0.067396  14.738892   1.907128   0.978715   # H_
 338 1 3   0.091892  13.779221   2.252618  19.678835   # C_3
 339 1 5   0.049251  12.960520   2.890190  19.892256   # H_
 340 1 3   0.036552  13.059468   0.942489  19.908196   # C_3
 341 1 3  -0.102310  14.186812   2.728106  18.178056   # C_3
 342 1 3  -0.059630  11.791569   1.571781  17.802137   # C_3
 343 1 3  -0.106802  11.741060   0.996517  19.141867   # C_3
 344 1 5  -0.085774  12.893451   0.826981   0.303261   # H_
 345 1 5   0.004992  13.660815   0.106814  19.669106   # H_
 346 1 5   0.010725  11.157723   0.026911  19.167328   # H_
 347 1 5   0.069459  11.127914   1.671557  19.768261   # H_
 348 1 3  -0.066259  12.969215   2.498952  17.216109   # C_3
 349 1 5   0.044687  13.230247   2.266073  16.191439   # H_
 350 1 5   0.049780  12.565764   3.515963  17.245089   # H_
 351 1 5   0.084700  14.429214   3.845306  18.256511   # H_
 352 1 5   0.007763  11.520394   0.802762  17.077830   # H_
 353 1 5   0.076348  15.086245   2.229640  17.894875   # H_
 354 1 5   0.036985  11.004540   2.220325  17.896324   # H_
 355 1 3   0.546422  17.520819  13.529781  10.350200   # C_3
 356 1 2  -0.703828  18.727859  13.878790  10.350200   # O_3
 357 1 2  -0.733006  17.171810  12.322741  10.350200   # O_3
 358 1 3  -0.185065  16.456818  14.593782  10.350200   # C_3
 359 1 3   0.115864  15.162836  14.166733  10.350200   # C_3
 360 1 4  -0.153505  14.831837  12.706527  10.136365   # N_3
 361 1 5   0.048741  13.051809  14.930785  10.350200   # H_
 362 1 3  -0.028258  14.167768  15.162629  10.350200   # C_3
 363 1 3  -0.110403  14.593782  16.456611  10.350200   # C_3
 364 1 3   0.000142  15.887764  16.882832  10.350200   # C_3
 365 1 3   0.043273  16.883867  15.887764  10.350200   # C_3
 366 1 5   0.049979  17.999826  16.119815  10.350200   # H_
 367 1 5   0.062656  16.119815  17.998791  10.350200   # H_
 368 1 2  -0.604668  13.878790  18.727652  10.350200   # O_3
 369 1 3   0.528310  13.529781  17.520612  10.350200   # C_3
 370 1 2  -0.650759  12.322741  17.171603  10.350200   # O_3
 371 1 5   0.086569  15.273997  12.402231   9.240452   # H_
 372 1 3   0.041604  13.445324  12.330400   9.839935   # C_3
 373 1 5   0.018843  12.813341  12.776287  10.600261   # H_
 374 1 3  -0.092183  13.352586  10.819478   9.879266   # C_3
 375 1 3  -0.095425  13.004198  12.881859   8.443072   # C_3
 376 1 3  -0.064643  11.270333  10.951133   8.570173   # C_3
 377 1 3  -0.062577  12.522500  10.209851   8.824167   # C_3
 378 1 5   0.047355  12.878340  10.538781  10.807886   # H_
 379 1 5   0.039841  14.360488  10.354961   9.782802   # H_
 380 1 5   0.040184  13.022829  10.224342   7.941087   # H_
 381 1 5   0.034953  12.370352   9.178143   9.072778   # H_
 382 1 3  -0.059929  11.635695  12.308665   8.018507   # C_3
 383 1 5   0.038900  11.723465  12.166867   6.962373   # H_
 384 1 5   0.041555  10.876197  13.075201   8.267533   # H_
 385 1 5   0.054014  12.908355  13.983327   8.323010   # H_
 386 1 5   0.028616  10.664225  10.437142   7.814815   # H_
 387 1 5   0.050123  13.741133  12.514841   7.692476   # H_
 388 1 5   0.034542  10.707282  10.895449   9.525496   # H_
 389 1 3   0.562066   7.170619   3.179581  10.350200   # C_3
 390 1 2  -0.668602   8.377659   3.528590  10.350200   # O_3
 391 1 2  -0.667027   6.821610   1.972541  10.350200   # O_3
 392 1 3  -0.189485   6.106618   4.243582  10.350200   # C_3
 393 1 3   0.113476   4.812636   3.816533  10.350200   # C_3
 394 1 4  -0.163977   4.479567   2.349288  10.075092   # N_3
 395 1 5   0.038283   2.701609   4.580585  10.350200   # H_
 396 1 3  -0.025331   3.817568   4.812636  10.350200   # C_3
 397 1 3  -0.125996   4.243582   6.106618  10.350200   # C_3
 398 1 3  -0.004040   5.537564   6.532632  10.350200   # C_3
 399 1 3   0.035656   6.533667   5.537564  10.350200   # C_3
 400 1 5   0.026719   7.649626   5.769615  10.350200   # H_
 401 1 5   0.035323   5.769615   7.648591  10.350200   # H_
 402 1 2  -0.661264   3.528590   8.377452  10.350200   # O_3
 403 1 3   0.537482   3.179581   7.170619  10.350200   # C_3
 404 1 2  -0.660850   1.972541   6.821610  10.350200   # O_3
 405 1 5   0.089601   4.966440   2.024499   9.208573   # H_
 406 1 3   0.107932   3.055793   2.043750   9.805779   # C_3
 407 1 5  -0.002717   2.359846   2.618808  10.458877   # H_
 408 1 3  -0.286932   2.774268   0.638193  10.342334   # C_3
 409 1 3  -0.185588   2.724173   2.279528   8.284507   # C_3
 410 1 3  -0.435285   0.941247   0.422702   8.537052   # C_3
 411 1 3   0.299805   2.029053  20.459240   9.364861   # C_3
 412 1 5   0.044116   2.231710   0.683527  11.318565   # H_
 413 1 5   0.042147   3.736422   0.097292  10.508558   # H_
 414 1 5   0.004260   2.818980  20.240023   8.672019   # H_
 415 1 5  -0.041866   1.724964  19.527929   9.768312   # H_
 416 1 3   0.086735   1.288807   1.855377   8.151818   # C_3
 417 1 5  -0.017312   1.168538   1.861587   7.080572   # H_
 418 1 5  -0.028609   0.663655   2.620050   8.661461   # H_
 419 1 5   0.071966   2.871766   3.357191   8.048316   # H_
 420 1 5   0.180888   0.761982  20.488014   7.641139   # H_
 421 1 5   0.067206   3.355121   1.690809   7.637413   # H_
 422 1 5   0.040703   0.010557   0.450855   9.130532   # H_
 423 1 3   0.546989   7.170619  13.529781   0.000000   # C_3
 424 1 2  -0.702591   8.377659  13.878790   0.000000   # O_3
 425 1 2  -0.713364   6.821610  12.322741   0.000000   # O_3
 426 1 3  -0.178173   6.106618  14.593782   0.000000   # C_3
 427 1 3   0.027064   4.812636  14.166733   0.000000   # C_3
 428 1 4  -0.096408   4.429058  12.693899  20.475801   # N_3
 429 1 5   0.009015   2.701609  14.930785   0.000000   # H_
 430 1 3  -0.014071   3.817568  15.162629   0.000000   # C_3
 431 1 3  -0.146446   4.243582  16.456611   0.000000   # C_3
 432 1 3  -0.002225   5.537564  16.882832   0.000000   # C_3
 433 1 3   0.015273   6.533667  15.887764   0.000000   # C_3
 434 1 5   0.017678   7.649626  16.119815   0.000000   # H_
 435 1 5   0.037083   5.769615  17.998791   0.000000   # H_
 436 1 2  -0.722137   3.528590  18.727652   0.000000   # O_3
 437 1 3   0.527438   3.179581  17.520612   0.000000   # C_3
 438 1 2  -0.782042   1.972541  17.171603   0.000000   # O_3
 439 1 5   0.110800   4.933733  12.415686  19.590859   # H_
 440 1 3   0.160883   3.030746  12.328123  20.202555   # C_3
 441 1 5  -0.076801   2.398762  12.728676   0.278213   # H_
 442 1 3   0.020954   2.897642  10.776007  20.169021   # C_3
 443 1 3  -0.132923   2.644890  12.754965  18.788304   # C_3
 444 1 3  -0.067534   0.773988  11.013441  18.878765   # C_3
 445 1 3  -0.076097   2.001729  10.163689  19.109160   # C_3
 446 1 5  -0.043894   2.419049  10.533192   0.396206   # H_
 447 1 5   0.044815   3.903474  10.324532  20.112923   # H_
 448 1 5   0.038239   2.501022  10.253736  18.185301   # H_
 449 1 5   0.059813   1.691430   9.143988  19.182440   # H_
 450 1 3  -0.038242   1.229190  12.353171  18.334344   # C_3
 451 1 5   0.023838   1.350908  12.230831  17.231634   # H_
 452 1 5   0.020327   0.602175  13.202715  18.629532   # H_
 453 1 5   0.086206   2.823328  13.825797  18.646299   # H_
 454 1 5   0.007067   0.122132  10.536297  18.141003   # H_
 455 1 5   0.056595   3.277908  12.229175  18.044953   # H_
 456 1 5   0.041766   0.283595  11.057326  19.847544   # H_
 457 1 3   0.523376  17.520819  17.520819   0.000000   # C_3
 458 1 2  -0.665617  18.727859  17.171810   0.000000   # O_3
 459 1 2  -0.646673  17.171810  18.727859   0.000000   # O_3
 460 1 3  -0.168300  16.456818  16.456818   0.000000   # C_3
 461 1 3   0.019355  15.162836  16.883867   0.000000   # C_3
 462 1 4  -0.035123  14.694386  18.200413  20.261966   # N_3
 463 1 5   0.011217  13.051809  16.119815   0.000000   # H_
 464 1 3  -0.019959  14.167768  15.887971   0.000000   # C_3
 465 1 3  -0.165379  14.593782  14.593989   0.000000   # C_3
 466 1 3  -0.005852  15.887764  14.167768   0.000000   # C_3
 467 1 3  -0.006337  16.883867  15.162836   0.000000   # C_3
 468 1 5   0.012329  17.999826  14.930785   0.000000   # H_
 469 1 5   0.014020  16.119815  13.051809   0.000000   # H_
 470 1 2  -0.781245  13.878790  12.322948   0.000000   # O_3
 471 1 3   0.527815  13.529781  13.529988   0.000000   # C_3
 472 1 2  -0.779428  12.322741  13.878997   0.000000   # O_3
 473 1 5   0.022461  14.195713  18.873590   0.245921   # H_
 474 1 3   0.103010  14.000923  17.907088  18.949560   # C_3
 475 1 5   0.035767  13.799094  16.820938  18.738002   # H_
 476 1 3  -0.172430  14.896629  17.947040  17.765290   # C_3
 477 1 3  -0.114055  12.512564  18.259202  18.828463   # C_3
 478 1 3  -0.065939  12.831557  17.944142  16.375879   # C_3
 479 1 3  -0.023077  14.317639  17.638604  16.364287   # C_3
 480 1 5   0.084284  15.615347  17.210106  18.016800   # H_
 481 1 5   0.137105  15.487832  18.751457  17.875416   # H_
 482 1 5   0.061798  14.828525  18.198343  15.593197   # H_
 483 1 5   0.024871  14.462748  16.591371  16.162872   # H_
 484 1 3  -0.046938  12.293761  18.844195  17.496185   # C_3
 485 1 5   0.098936  12.979358  19.673246  17.713125   # H_
 486 1 5   0.071884  11.290826  19.255719  17.383575   # H_
 487 1 5   0.074091  11.815167  17.360597  18.975643   # H_
 488 1 5   0.078549  12.526226  18.327513  15.368598   # H_