 (written by mofun)

776 atoms
0 bonds
0 angles
0 dihedrals
0 impropers

5 atom types
   0.000000  26.896000 xlo xhi
   0.000000  26.896000 ylo yhi
   0.000000  26.896000 zlo zhi

Masses

 1 91.2240   # Zr3+4
 2 15.9994   # O_3
 3 12.0107   # C_3
 4 1.0079   # H_
 5 14.0067   # N_3

Pair Coeffs

 1   0.069000   2.783168 # Zr3+4
 2   0.060000   3.118146 # O_3
 3   0.105000   3.430851 # C_3
 4   0.044000   2.571134 # H_
 5   0.069000   3.260689 # N_3

Atoms

 1 1 1   3.186780   2.475508   0.000000   0.000000   # Zr3+4
 2 1 1   3.186000  24.420492   0.000000   0.000000   # Zr3+4
 3 1 1   3.186140   0.000000   2.475508   0.000000   # Zr3+4
 4 1 1   3.185410   0.000000  24.420492   0.000000   # Zr3+4
 5 1 1   3.186780   0.000000   0.000000   2.475508   # Zr3+4
 6 1 1   3.185990   0.000000   0.000000  24.420492   # Zr3+4
 7 1 1   3.214820   2.475508  13.448000  13.448000   # Zr3+4
 8 1 1   3.213560  24.420492  13.448000  13.448000   # Zr3+4
 9 1 1   3.200350   0.000000  15.923508  13.448000   # Zr3+4
 10 1 1   3.200270   0.000000  10.972492  13.448000   # Zr3+4
 11 1 1   3.200350   0.000000  13.448000  15.923508   # Zr3+4
 12 1 1   3.200260   0.000000  13.448000  10.972492   # Zr3+4
 13 1 1   3.200910  15.923508   0.000000  13.448000   # Zr3+4
 14 1 1   3.200820  10.972492   0.000000  13.448000   # Zr3+4
 15 1 1   3.214800  13.448000   2.475508  13.448000   # Zr3+4
 16 1 1   3.213610  13.448000  24.420492  13.448000   # Zr3+4
 17 1 1   3.200890  13.448000   0.000000  15.923508   # Zr3+4
 18 1 1   3.200800  13.448000   0.000000  10.972492   # Zr3+4
 19 1 1   3.200350  15.923508  13.448000   0.000000   # Zr3+4
 20 1 1   3.200260  10.972492  13.448000   0.000000   # Zr3+4
 21 1 1   3.200340  13.448000  15.923508   0.000000   # Zr3+4
 22 1 1   3.200250  13.448000  10.972492   0.000000   # Zr3+4
 23 1 1   3.214810  13.448000  13.448000   2.475508   # Zr3+4
 24 1 1   3.213590  13.448000  13.448000  24.420492   # Zr3+4
 25 1 2  -1.333230   1.221078   1.221078   1.221078   # O_3
 26 1 2  -1.135400  25.674922  25.674922   1.221078   # O_3
 27 1 2  -1.131000  25.674922   1.221078  25.674922   # O_3
 28 1 2  -1.135370   1.221078  25.674922  25.674922   # O_3
 29 1 2  -1.230280   1.221078   1.221078  25.674922   # O_3
 30 1 2  -1.039700  25.674922  25.674922  25.674922   # O_3
 31 1 2  -1.234670   1.221078  25.674922   1.221078   # O_3
 32 1 2  -1.230320  25.674922   1.221078   1.221078   # O_3
 33 1 2  -1.275470   1.221078  14.669078  14.669078   # O_3
 34 1 2  -1.173260  25.674922  12.226922  14.669078   # O_3
 35 1 2  -1.173280  25.674922  14.669078  12.226922   # O_3
 36 1 2  -1.275780   1.221078  12.226922  12.226922   # O_3
 37 1 2  -1.275650   1.221078  14.669078  12.226922   # O_3
 38 1 2  -1.173160  25.674922  12.226922  12.226922   # O_3
 39 1 2  -1.275580   1.221078  12.226922  14.669078   # O_3
 40 1 2  -1.173390  25.674922  14.669078  14.669078   # O_3
 41 1 2  -1.274150  14.669078   1.221078  14.669078   # O_3
 42 1 2  -1.176410  12.226922  25.674922  14.669078   # O_3
 43 1 2  -1.274500  12.226922   1.221078  12.226922   # O_3
 44 1 2  -1.176400  14.669078  25.674922  12.226922   # O_3
 45 1 2  -1.274340  14.669078   1.221078  12.226922   # O_3
 46 1 2  -1.176220  12.226922  25.674922  12.226922   # O_3
 47 1 2  -1.176430  14.669078  25.674922  14.669078   # O_3
 48 1 2  -1.274270  12.226922   1.221078  14.669078   # O_3
 49 1 2  -1.275490  14.669078  14.669078   1.221078   # O_3
 50 1 2  -1.275810  12.226922  12.226922   1.221078   # O_3
 51 1 2  -1.173250  12.226922  14.669078  25.674922   # O_3
 52 1 2  -1.173240  14.669078  12.226922  25.674922   # O_3
 53 1 2  -1.173350  14.669078  14.669078  25.674922   # O_3
 54 1 2  -1.173080  12.226922  12.226922  25.674922   # O_3
 55 1 2  -1.275610  14.669078  12.226922   1.221078   # O_3
 56 1 2  -1.275640  12.226922  14.669078   1.221078   # O_3
 57 1 2  -0.682336   3.566410   0.000000   1.933822   # O_3
 58 1 3   0.484329   3.152211   0.000000   3.152211   # C_3
 59 1 2  -0.682313   1.933822   0.000000   3.566410   # O_3
 60 1 3  -0.156434   4.209224   0.000000   4.209224   # C_3
 61 1 3   0.059669   5.535197   0.000000   3.891851   # C_3
 62 1 3  -0.007746   3.891851   0.000000   5.535197   # C_3
 63 1 3  -0.127950   6.508832   0.000000   4.827832   # C_3
 64 1 4  -0.003831   5.779950   0.000000   2.996214   # H_
 65 1 3   0.005628   4.827832   0.000000   6.508832   # C_3
 66 1 4   0.018388   2.996214   0.000000   5.779950   # H_
 67 1 3   0.011672   6.204907   0.000000   6.204907   # C_3
 68 1 3   0.006072   7.243093   0.000000   7.243093   # C_3
 69 1 4   0.062988   7.399090   0.000000   4.558872   # H_
 70 1 3   0.010838   8.620168   0.000000   6.939168   # C_3
 71 1 5  -0.256381   4.271623   0.132597   7.905810   # N_3
 72 1 3  -0.119248   6.939168   0.000000   8.620168   # C_3
 73 1 3  -0.016001   9.556149   0.000000   7.912803   # C_3
 74 1 5  -0.258822   9.174495   0.144969   5.532776   # N_3
 75 1 3   0.049997   7.912803   0.000000   9.556149   # C_3
 76 1 4   0.062654   6.048910   0.000000   8.889128   # H_
 77 1 3  -0.146643   9.238776   0.000000   9.238776   # C_3
 78 1 3   0.474907  10.295789   0.000000  10.295789   # C_3
 79 1 4   0.026042  10.451786   0.000000   7.668050   # H_
 80 1 4   0.005824   7.668050   0.000000  10.451786   # H_
 81 1 2  -0.672964  11.514178   0.000000   9.881590   # O_3
 82 1 2  -0.672470   9.881590   0.000000  11.514178   # O_3
 83 1 4   0.064543   9.806282   0.980359   5.486784   # H_
 84 1 4   0.191915   9.764862  26.205580   5.318953   # H_
 85 1 4   0.189248   3.693359  26.177070   8.084669   # H_
 86 1 4   0.060016   3.607292   0.936788   7.979236   # H_
 87 1 2  -0.672912  23.329590   0.000000   1.933822   # O_3
 88 1 3   0.468839  23.743789   0.000000   3.152211   # C_3
 89 1 2  -0.602266  24.962178   0.000000   3.566410   # O_3
 90 1 3  -0.116799  22.686776   0.000000   4.209224   # C_3
 91 1 3   0.037282  21.360803   0.000000   3.891851   # C_3
 92 1 3  -0.032888  23.004149   0.000000   5.535197   # C_3
 93 1 3  -0.103893  20.387168   0.000000   4.827832   # C_3
 94 1 4   0.006783  21.116050   0.000000   2.996214   # H_
 95 1 3   0.035432  22.068168   0.000000   6.508832   # C_3
 96 1 4   0.062199  23.899786   0.000000   5.779950   # H_
 97 1 3  -0.000324  20.691093   0.000000   6.204907   # C_3
 98 1 3   0.017553  19.652907   0.000000   7.243093   # C_3
 99 1 4   0.056760  19.496910   0.000000   4.558872   # H_
 100 1 3   0.009015  18.275832   0.000000   6.939168   # C_3
 101 1 5  -0.260445  22.624377   0.133135   7.905541   # N_3
 102 1 3  -0.123830  19.956832   0.000000   8.620168   # C_3
 103 1 3  -0.012013  17.339851   0.000000   7.912803   # C_3
 104 1 5  -0.257285  17.721505   0.141473   5.533314   # N_3
 105 1 3   0.057058  18.983197   0.000000   9.556149   # C_3
 106 1 4   0.074031  20.847090   0.000000   8.889128   # H_
 107 1 3  -0.148378  17.657224   0.000000   9.238776   # C_3
 108 1 3   0.476170  16.600211   0.000000  10.295789   # C_3
 109 1 4   0.025338  16.444214   0.000000   7.668050   # H_
 110 1 4   0.008981  19.227950   0.000000  10.451786   # H_
 111 1 2  -0.672815  15.381822   0.000000   9.881590   # O_3
 112 1 2  -0.670928  17.014410   0.000000  11.514178   # O_3
 113 1 4   0.065816  17.087029   0.973904   5.483288   # H_
 114 1 4   0.192254  17.131407  26.201276   5.322718   # H_
 115 1 4   0.219449  23.202641  26.177070   8.083055   # H_
 116 1 4   0.094673  23.289515   0.937057   7.978967   # H_
 117 1 2  -0.594902  23.329590   0.000000  24.962178   # O_3
 118 1 3   0.455867  23.743789   0.000000  23.743789   # C_3
 119 1 2  -0.594757  24.962178   0.000000  23.329590   # O_3
 120 1 3  -0.084100  22.686776   0.000000  22.686776   # C_3
 121 1 3   0.020643  21.360803   0.000000  23.004149   # C_3
 122 1 3  -0.046148  23.004149   0.000000  21.360803   # C_3
 123 1 3  -0.078517  20.387168   0.000000  22.068168   # C_3
 124 1 4   0.050235  21.116050   0.000000  23.899786   # H_
 125 1 3   0.047749  22.068168   0.000000  20.387168   # C_3
 126 1 4   0.068998  23.899786   0.000000  21.116050   # H_
 127 1 3  -0.004571  20.691093   0.000000  20.691093   # C_3
 128 1 3   0.023133  19.652907   0.000000  19.652907   # C_3
 129 1 4   0.067013  19.496910   0.000000  22.337128   # H_
 130 1 3   0.014582  18.275832   0.000000  19.956832   # C_3
 131 1 5  -0.260850  22.624377   0.132328  18.990190   # N_3
 132 1 3  -0.123194  19.956832   0.000000  18.275832   # C_3
 133 1 3  -0.013308  17.339851   0.000000  18.983197   # C_3
 134 1 5  -0.253585  17.721505   0.143087  21.362417   # N_3
 135 1 3   0.058156  18.983197   0.000000  17.339851   # C_3
 136 1 4   0.075757  20.847090   0.000000  18.006872   # H_
 137 1 3  -0.145415  17.657224   0.000000  17.657224   # C_3
 138 1 3   0.476087  16.600211   0.000000  16.600211   # C_3
 139 1 4   0.030480  16.444214   0.000000  19.227950   # H_
 140 1 4   0.010166  19.227950   0.000000  16.444214   # H_
 141 1 2  -0.670573  15.381822   0.000000  17.014410   # O_3
 142 1 2  -0.670101  17.014410   0.000000  15.381822   # O_3
 143 1 4   0.082336  17.087029   0.975518  21.412175   # H_
 144 1 4   0.208969  17.131138  26.203159  21.573551   # H_
 145 1 4   0.220177  23.202372  26.175994  18.812945   # H_
 146 1 4   0.096835  23.289515   0.936250  18.916764   # H_
 147 1 2  -0.602901   3.566410   0.000000  24.962178   # O_3
 148 1 3   0.470918   3.152211   0.000000  23.743789   # C_3
 149 1 2  -0.673406   1.933822   0.000000  23.329590   # O_3
 150 1 3  -0.122846   4.209224   0.000000  22.686776   # C_3
 151 1 3   0.042591   5.535197   0.000000  23.004149   # C_3
 152 1 3  -0.021416   3.891851   0.000000  21.360803   # C_3
 153 1 3  -0.102001   6.508832   0.000000  22.068168   # C_3
 154 1 4   0.040309   5.779950   0.000000  23.899786   # H_
 155 1 3   0.018176   4.827832   0.000000  20.387168   # C_3
 156 1 4   0.025722   2.996214   0.000000  21.116050   # H_
 157 1 3   0.007198   6.204907   0.000000  20.691093   # C_3
 158 1 3   0.011683   7.243093   0.000000  19.652907   # C_3
 159 1 4   0.073410   7.399090   0.000000  22.337128   # H_
 160 1 3   0.016551   8.620168   0.000000  19.956832   # C_3
 161 1 5  -0.256997   4.271623   0.131790  18.989921   # N_3
 162 1 3  -0.119279   6.939168   0.000000  18.275832   # C_3
 163 1 3  -0.017309   9.556149   0.000000  18.983197   # C_3
 164 1 5  -0.255131   9.174495   0.143356  21.363224   # N_3
 165 1 3   0.050764   7.912803   0.000000  17.339851   # C_3
 166 1 4   0.063626   6.048910   0.000000  18.006872   # H_
 167 1 3  -0.143999   9.238776   0.000000  17.657224   # C_3
 168 1 3   0.474718  10.295789   0.000000  16.600211   # C_3
 169 1 4   0.031375  10.451786   0.000000  19.227950   # H_
 170 1 4   0.005731   7.668050   0.000000  16.444214   # H_
 171 1 2  -0.670701  11.514178   0.000000  17.014410   # O_3
 172 1 2  -0.672095   9.881590   0.000000  15.381822   # O_3
 173 1 4   0.082320   9.806282   0.979014  21.409485   # H_
 174 1 4   0.208775   9.764593  26.203697  21.576509   # H_
 175 1 4   0.189574   3.693628  26.175994  18.811600   # H_
 176 1 4   0.062323   3.606754   0.935712  18.916495   # H_
 177 1 2  -0.683403   1.933822   3.566410   0.000000   # O_3
 178 1 3   0.478911   3.152211   3.152211   0.000000   # C_3
 179 1 2  -0.682664   3.566410   1.933822   0.000000   # O_3
 180 1 3  -0.142748   4.209224   4.209224   0.000000   # C_3
 181 1 3   0.035608   3.891851   5.535197   0.000000   # C_3
 182 1 3  -0.023191   5.535197   3.891851   0.000000   # C_3
 183 1 3  -0.097070   4.827832   6.508832   0.000000   # C_3
 184 1 4   0.002997   2.996214   5.779950   0.000000   # H_
 185 1 3   0.021100   6.508832   4.827832   0.000000   # C_3
 186 1 4   0.022892   5.779950   2.996214   0.000000   # H_
 187 1 3  -0.025559   6.204907   6.204907   0.000000   # C_3
 188 1 3   0.060385   7.243093   7.243093   0.000000   # C_3
 189 1 4   0.036688   4.558872   7.399090   0.000000   # H_
 190 1 3  -0.102197   6.939168   8.620168   0.000000   # C_3
 191 1 5  -0.263457   7.913341   4.273505   0.140666   # N_3
 192 1 3  -0.168134   8.620168   6.939168   0.000000   # C_3
 193 1 3   0.059617   7.912803   9.556149   0.000000   # C_3
 194 1 5  -0.026778   5.524707   9.176915  26.749955   # N_3
 195 1 3   0.097463   9.556149   7.912803   0.000000   # C_3
 196 1 4   0.078747   8.889128   6.048910   0.000000   # H_
 197 1 3  -0.193083   9.238776   9.238776   0.000000   # C_3
 198 1 3   0.490775  10.295789  10.295789   0.000000   # C_3
 199 1 4  -0.002120   7.668050  10.451786   0.000000   # H_
 200 1 4  -0.011150  10.451786   7.668050   0.000000   # H_
 201 1 2  -0.678202   9.881590  11.514178   0.000000   # O_3
 202 1 2  -0.677965  11.514178   9.881590   0.000000   # O_3
 203 1 4   0.118547   5.533852   9.752759  25.876104   # H_
 204 1 4  -0.016442   5.293940   9.771048   0.685579   # H_
 205 1 4   0.195363   8.120171   3.684214  26.199663   # H_
 206 1 4   0.061085   7.969016   3.633650   0.967180   # H_
 207 1 2  -0.674370   1.933822  23.329590   0.000000   # O_3
 208 1 3   0.463974   3.152211  23.743789   0.000000   # C_3
 209 1 2  -0.606043   3.566410  24.962178   0.000000   # O_3
 210 1 3  -0.104756   4.209224  22.686776   0.000000   # C_3
 211 1 3   0.014025   3.891851  21.360803   0.000000   # C_3
 212 1 3  -0.047575   5.535197  23.004149   0.000000   # C_3
 213 1 3  -0.074055   4.827832  20.387168   0.000000   # C_3
 214 1 4   0.013166   2.996214  21.116050   0.000000   # H_
 215 1 3   0.049944   6.508832  22.068168   0.000000   # C_3
 216 1 4   0.064906   5.779950  23.899786   0.000000   # H_
 217 1 3  -0.037073   6.204907  20.691093   0.000000   # C_3
 218 1 3   0.071004   7.243093  19.652907   0.000000   # C_3
 219 1 4   0.030756   4.558872  19.496910   0.000000   # H_
 220 1 3  -0.103035   6.939168  18.275832   0.000000   # C_3
 221 1 5  -0.267570   7.911727  22.623032   0.136094   # N_3
 222 1 3  -0.171991   8.620168  19.956832   0.000000   # C_3
 223 1 3   0.062882   7.912803  17.339851   0.000000   # C_3
 224 1 5  -0.026435   5.526052  17.720161  26.749686   # N_3
 225 1 3   0.103844   9.556149  18.983197   0.000000   # C_3
 226 1 4   0.089640   8.889128  20.847090   0.000000   # H_
 227 1 3  -0.194279   9.238776  17.657224   0.000000   # C_3
 228 1 3   0.491850  10.295789  16.600211   0.000000   # C_3
 229 1 4  -0.002593   7.668050  16.444214   0.000000   # H_
 230 1 4  -0.007484  10.451786  19.227950   0.000000   # H_
 231 1 2  -0.678030   9.881590  15.381822   0.000000   # O_3
 232 1 2  -0.676264  11.514178  17.014410   0.000000   # O_3
 233 1 4   0.119304   5.522287  17.128180  25.883366   # H_
 234 1 4  -0.015049   5.298243  17.128718   0.688000   # H_
 235 1 4   0.224431   8.111027  23.209903  26.192132   # H_
 236 1 4   0.093885   7.974933  23.269881   0.954001   # H_
 237 1 2  -0.596303  24.962178  23.329590   0.000000   # O_3
 238 1 3   0.451128  23.743789  23.743789   0.000000   # C_3
 239 1 2  -0.598575  23.329590  24.962178   0.000000   # O_3
 240 1 3  -0.072206  22.686776  22.686776   0.000000   # C_3
 241 1 3  -0.002160  23.004149  21.360803   0.000000   # C_3
 242 1 3  -0.060571  21.360803  23.004149   0.000000   # C_3
 243 1 3  -0.048952  22.068168  20.387168   0.000000   # C_3
 244 1 4   0.056738  23.899786  21.116050   0.000000   # H_
 245 1 3   0.061949  20.387168  22.068168   0.000000   # C_3
 246 1 4   0.071555  21.116050  23.899786   0.000000   # H_
 247 1 3  -0.040860  20.691093  20.691093   0.000000   # C_3
 248 1 3   0.075781  19.652907  19.652907   0.000000   # C_3
 249 1 4   0.041522  22.337128  19.496910   0.000000   # H_
 250 1 3  -0.095949  19.956832  18.275832   0.000000   # C_3
 251 1 5  -0.268056  18.984811  22.622764   0.138783   # N_3
 252 1 3  -0.171184  18.275832  19.956832   0.000000   # C_3
 253 1 3   0.060554  18.983197  17.339851   0.000000   # C_3
 254 1 5  -0.025737  21.369679  17.720430  26.749686   # N_3
 255 1 3   0.104007  17.339851  18.983197   0.000000   # C_3
 256 1 4   0.090484  18.006872  20.847090   0.000000   # H_
 257 1 3  -0.191007  17.657224  17.657224   0.000000   # C_3
 258 1 3   0.491444  16.600211  16.600211   0.000000   # C_3
 259 1 4   0.003025  19.227950  16.444214   0.000000   # H_
 260 1 4  -0.007072  16.444214  19.227950   0.000000   # H_
 261 1 2  -0.675783  17.014410  15.381822   0.000000   # O_3
 262 1 2  -0.675759  15.381822  17.014410   0.000000   # O_3
 263 1 4   0.135239  21.376403  17.124952  25.885517   # H_
 264 1 4   0.005120  21.596681  17.129524   0.688538   # H_
 265 1 4   0.224881  18.784435  23.210172  26.195628   # H_
 266 1 4   0.095711  18.922143  23.269612   0.956960   # H_
 267 1 2  -0.603938  24.962178   3.566410   0.000000   # O_3
 268 1 3   0.465573  23.743789   3.152211   0.000000   # C_3
 269 1 2  -0.673796  23.329590   1.933822   0.000000   # O_3
 270 1 3  -0.109268  22.686776   4.209224   0.000000   # C_3
 271 1 3   0.018778  23.004149   5.535197   0.000000   # C_3
 272 1 3  -0.036768  21.360803   3.891851   0.000000   # C_3
 273 1 3  -0.071388  22.068168   6.508832   0.000000   # C_3
 274 1 4   0.047189  23.899786   5.779950   0.000000   # H_
 275 1 3   0.033446  20.387168   4.827832   0.000000   # C_3
 276 1 4   0.030100  21.116050   2.996214   0.000000   # H_
 277 1 3  -0.029732  20.691093   6.204907   0.000000   # C_3
 278 1 3   0.065253  19.652907   7.243093   0.000000   # C_3
 279 1 4   0.047335  22.337128   7.399090   0.000000   # H_
 280 1 3  -0.095281  19.956832   8.620168   0.000000   # C_3
 281 1 5  -0.264156  18.983197   4.273236   0.139321   # N_3
 282 1 3  -0.167572  18.275832   6.939168   0.000000   # C_3
 283 1 3   0.057335  18.983197   9.556149   0.000000   # C_3
 284 1 5  -0.026010  21.371024   9.176646  26.749955   # N_3
 285 1 3   0.097578  17.339851   7.912803   0.000000   # C_3
 286 1 4   0.079511  18.006872   6.048910   0.000000   # H_
 287 1 3  -0.189928  17.657224   9.238776   0.000000   # C_3
 288 1 3   0.490349  16.600211  10.295789   0.000000   # C_3
 289 1 4   0.003502  19.227950  10.451786   0.000000   # H_
 290 1 4  -0.010854  16.444214   7.668050   0.000000   # H_
 291 1 2  -0.675952  17.014410  11.514178   0.000000   # O_3
 292 1 2  -0.677530  15.381822   9.881590   0.000000   # O_3
 293 1 4   0.134400  21.363224   9.754641  25.876911   # H_
 294 1 4   0.003909  21.601791   9.770241   0.686117   # H_
 295 1 4   0.195413  18.779325   3.685021  26.197242   # H_
 296 1 4   0.063404  18.924832   3.630691   0.962339   # H_
 297 1 2  -0.682817   0.000000   1.933822   3.566410   # O_3
 298 1 3   0.479318   0.000000   3.152211   3.152211   # C_3
 299 1 2  -0.683411   0.000000   3.566410   1.933822   # O_3
 300 1 3  -0.143869   0.000000   4.209224   4.209224   # C_3
 301 1 3   0.036741   0.000000   3.891851   5.535197   # C_3
 302 1 3  -0.021333   0.000000   5.535197   3.891851   # C_3
 303 1 3  -0.098094   0.000000   4.827832   6.508832   # C_3
 304 1 4   0.003223   0.000000   2.996214   5.779950   # H_
 305 1 3   0.018279   0.000000   6.508832   4.827832   # C_3
 306 1 4   0.021795   0.000000   5.779950   2.996214   # H_
 307 1 3  -0.024275   0.000000   6.204907   6.204907   # C_3
 308 1 3   0.059187   0.000000   7.243093   7.243093   # C_3
 309 1 4   0.037185   0.000000   4.558872   7.399090   # H_
 310 1 3  -0.101370   0.000000   6.939168   8.620168   # C_3
 311 1 5  -0.263757   0.146045   7.922217   4.271892   # N_3
 312 1 3  -0.167484   0.000000   8.620168   6.939168   # C_3
 313 1 3   0.059042   0.000000   7.912803   9.556149   # C_3
 314 1 5  -0.025692  26.745113   5.528742   9.177991   # N_3
 315 1 3   0.096593   0.000000   9.556149   7.912803   # C_3
 316 1 4   0.077987   0.000000   8.889128   6.048910   # H_
 317 1 3  -0.192675   0.000000   9.238776   9.238776   # C_3
 318 1 3   0.490532   0.000000  10.295789  10.295789   # C_3
 319 1 4  -0.001216   0.000000   7.668050  10.451786   # H_
 320 1 4  -0.011214   0.000000  10.451786   7.668050   # H_
 321 1 2  -0.678079   0.000000   9.881590  11.514178   # O_3
 322 1 2  -0.678030   0.000000  11.514178   9.881590   # O_3
 323 1 4   0.118442  25.845442   5.515294   9.716718   # H_
 324 1 4  -0.017491   0.644697   5.308464   9.828605   # H_
 325 1 4   0.193829  26.208000   8.150564   3.680449   # H_
 326 1 4   0.063970   1.013441   7.923562   3.682600   # H_
 327 1 2  -0.673391   0.000000   1.933822  23.329590   # O_3
 328 1 3   0.463901   0.000000   3.152211  23.743789   # C_3
 329 1 2  -0.603340   0.000000   3.566410  24.962178   # O_3
 330 1 3  -0.104455   0.000000   4.209224  22.686776   # C_3
 331 1 3   0.014686   0.000000   3.891851  21.360803   # C_3
 332 1 3  -0.046114   0.000000   5.535197  23.004149   # C_3
 333 1 3  -0.074341   0.000000   4.827832  20.387168   # C_3
 334 1 4   0.013791   0.000000   2.996214  21.116050   # H_
 335 1 3   0.047546   0.000000   6.508832  22.068168   # C_3
 336 1 4   0.065687   0.000000   5.779950  23.899786   # H_
 337 1 3  -0.035810   0.000000   6.204907  20.691093   # C_3
 338 1 3   0.070442   0.000000   7.243093  19.652907   # C_3
 339 1 4   0.031296   0.000000   4.558872  19.496910   # H_
 340 1 3  -0.102780   0.000000   6.939168  18.275832   # C_3
 341 1 5  -0.267719   0.146045   7.923293  22.624915   # N_3
 342 1 3  -0.171334   0.000000   8.620168  19.956832   # C_3
 343 1 3   0.062710   0.000000   7.912803  17.339851   # C_3
 344 1 5  -0.026274  26.749686   5.526859  17.717740   # N_3
 345 1 3   0.103508   0.000000   9.556149  18.983197   # C_3
 346 1 4   0.089542   0.000000   8.889128  20.847090   # H_
 347 1 3  -0.193817   0.000000   9.238776  17.657224   # C_3
 348 1 3   0.491812   0.000000  10.295789  16.600211   # C_3
 349 1 4  -0.001903   0.000000   7.668050  16.444214   # H_
 350 1 4  -0.007088   0.000000  10.451786  19.227950   # H_
 351 1 2  -0.677824   0.000000   9.881590  15.381822   # O_3
 352 1 2  -0.676134   0.000000  11.514178  17.014410   # O_3
 353 1 4   0.120026  25.853242   5.529280  17.175517   # H_
 354 1 4  -0.014960   0.659221   5.300664  17.082725   # H_
 355 1 4   0.225719  26.210421   8.154060  23.219317   # H_
 356 1 4   0.098048   1.020165   7.913879  23.200221   # H_
 357 1 2  -0.598873   0.000000  24.962178  23.329590   # O_3
 358 1 3   0.451483   0.000000  23.743789  23.743789   # C_3
 359 1 2  -0.596238   0.000000  23.329590  24.962178   # O_3
 360 1 3  -0.073409   0.000000  22.686776  22.686776   # C_3
 361 1 3  -0.001340   0.000000  23.004149  21.360803   # C_3
 362 1 3  -0.058653   0.000000  21.360803  23.004149   # C_3
 363 1 3  -0.050320   0.000000  22.068168  20.387168   # C_3
 364 1 4   0.055125   0.000000  23.899786  21.116050   # H_
 365 1 3   0.058813   0.000000  20.387168  22.068168   # C_3
 366 1 4   0.072039   0.000000  21.116050  23.899786   # H_
 367 1 3  -0.039485   0.000000  20.691093  20.691093   # C_3
 368 1 3   0.073936   0.000000  19.652907  19.652907   # C_3
 369 1 4   0.040358   0.000000  22.337128  19.496910   # H_
 370 1 3  -0.093869   0.000000  19.956832  18.275832   # C_3
 371 1 5  -0.268387   0.146045  18.972438  22.625184   # N_3
 372 1 3  -0.169887   0.000000  18.275832  19.956832   # C_3
 373 1 3   0.059866   0.000000  18.983197  17.339851   # C_3
 374 1 5  -0.024962  26.770665  21.361341  17.718009   # N_3
 375 1 3   0.103076   0.000000  17.339851  18.983197   # C_3
 376 1 4   0.090233   0.000000  18.006872  20.847090   # H_
 377 1 3  -0.190259   0.000000  17.657224  17.657224   # C_3
 378 1 3   0.491195   0.000000  16.600211  16.600211   # C_3
 379 1 4   0.004616   0.000000  19.227950  16.444214   # H_
 380 1 4  -0.006591   0.000000  16.444214  19.227950   # H_
 381 1 2  -0.675635   0.000000  17.014410  15.381822   # O_3
 382 1 2  -0.675702   0.000000  15.381822  17.014410   # O_3
 383 1 4   0.134388  25.869111  21.484525  17.208330   # H_
 384 1 4   0.001824   0.631249  21.515993  17.012796   # H_
 385 1 4   0.226267  26.212573  18.740595  23.222275   # H_
 386 1 4   0.100407   1.023662  18.986424  23.193497   # H_
 387 1 2  -0.606858   0.000000  24.962178   3.566410   # O_3
 388 1 3   0.466431   0.000000  23.743789   3.152211   # C_3
 389 1 2  -0.674882   0.000000  23.329590   1.933822   # O_3
 390 1 3  -0.111794   0.000000  22.686776   4.209224   # C_3
 391 1 3   0.020061   0.000000  23.004149   5.535197   # C_3
 392 1 3  -0.034385   0.000000  21.360803   3.891851   # C_3
 393 1 3  -0.073241   0.000000  22.068168   6.508832   # C_3
 394 1 4   0.045271   0.000000  23.899786   5.779950   # H_
 395 1 3   0.029950   0.000000  20.387168   4.827832   # C_3
 396 1 4   0.028746   0.000000  21.116050   2.996214   # H_
 397 1 3  -0.028237   0.000000  20.691093   6.204907   # C_3
 398 1 3   0.062880   0.000000  19.652907   7.243093   # C_3
 399 1 4   0.046019   0.000000  22.337128   7.399090   # H_
 400 1 3  -0.092458   0.000000  19.956832   8.620168   # C_3
 401 1 5  -0.264520   0.146314  18.973245   4.271623   # N_3
 402 1 3  -0.166008   0.000000  18.275832   6.939168   # C_3
 403 1 3   0.056341   0.000000  18.983197   9.556149   # C_3
 404 1 5  -0.024715  26.783306  21.359996   9.177453   # N_3
 405 1 3   0.096125   0.000000  17.339851   7.912803   # C_3
 406 1 4   0.078635   0.000000  18.006872   6.048910   # H_
 407 1 3  -0.188981   0.000000  17.657224   9.238776   # C_3
 408 1 3   0.489952   0.000000  16.600211  10.295789   # C_3
 409 1 4   0.005373   0.000000  19.227950  10.451786   # H_
 410 1 4  -0.010475   0.000000  16.444214   7.668050   # H_
 411 1 2  -0.675817   0.000000  17.014410  11.514178   # O_3
 412 1 2  -0.677497   0.000000  15.381822   9.881590   # O_3
 413 1 4   0.133434  25.883097  21.512766   9.679332   # H_
 414 1 4   0.000329   0.637704  21.495283   9.890197   # H_
 415 1 4   0.194328  26.209076  18.743553   3.679104   # H_
 416 1 4   0.066636   1.016669  18.977280   3.688786   # H_
 417 1 2  -0.624014   3.566410  13.448000  15.381822   # O_3
 418 1 3   0.479748   3.152211  13.448000  16.600211   # C_3
 419 1 2  -0.632677   1.933822  13.448000  17.014410   # O_3
 420 1 3  -0.119417   4.209224  13.448000  17.657224   # C_3
 421 1 3   0.051100   5.535197  13.448000  17.339851   # C_3
 422 1 3  -0.015275   3.891851  13.448000  18.983197   # C_3
 423 1 3  -0.102021   6.508832  13.448000  18.275832   # C_3
 424 1 4   0.030388   5.779950  13.448000  16.444214   # H_
 425 1 3   0.037857   4.827832  13.448000  19.956832   # C_3
 426 1 4   0.052060   2.996214  13.448000  19.227950   # H_
 427 1 3   0.019686   6.204907  13.448000  19.652907   # C_3
 428 1 3   0.012859   7.243093  13.448000  20.691093   # C_3
 429 1 4   0.077912   7.399090  13.448000  18.006872   # H_
 430 1 3   0.042339   8.620168  13.448000  20.387168   # C_3
 431 1 5  -0.180452   4.271354  13.595659  21.359727   # N_3
 432 1 3  -0.081222   6.939168  13.448000  22.068168   # C_3
 433 1 3  -0.023522   9.556149  13.448000  21.360803   # C_3
 434 1 5  -0.177331   9.253031  13.687105  18.969480   # N_3
 435 1 3   0.036815   7.912803  13.448000  23.004149   # C_3
 436 1 4   0.083202   6.048910  13.448000  22.337128   # H_
 437 1 3  -0.091602   9.238776  13.448000  22.686776   # C_3
 438 1 3   0.467470  10.295789  13.448000  23.743789   # C_3
 439 1 4   0.061447  10.451786  13.448000  21.116050   # H_
 440 1 4   0.063286   7.668050  13.448000  23.899786   # H_
 441 1 2  -0.616300  11.514178  13.448000  23.329590   # O_3
 442 1 2  -0.556036   9.881590  13.448000  24.962178   # O_3
 443 1 4   0.078737   9.161047  14.682526  18.572495   # H_
 444 1 4   0.077749  10.235542  13.289583  18.850331   # H_
 445 1 4   0.083253   3.894272  12.684960  21.736002   # H_
 446 1 4   0.083196   3.507238  14.315396  21.355155   # H_
 447 1 2  -0.615604  23.329590  13.448000  15.381822   # O_3
 448 1 3   0.463732  23.743789  13.448000  16.600211   # C_3
 449 1 2  -0.553210  24.962178  13.448000  17.014410   # O_3
 450 1 3  -0.078867  22.686776  13.448000  17.657224   # C_3
 451 1 3   0.027568  21.360803  13.448000  17.339851   # C_3
 452 1 3  -0.043547  23.004149  13.448000  18.983197   # C_3
 453 1 3  -0.076883  20.387168  13.448000  18.275832   # C_3
 454 1 4   0.040653  21.116050  13.448000  16.444214   # H_
 455 1 3   0.070179  22.068168  13.448000  19.956832   # C_3
 456 1 4   0.095338  23.899786  13.448000  19.227950   # H_
 457 1 3   0.005431  20.691093  13.448000  19.652907   # C_3
 458 1 3   0.028130  19.652907  13.448000  20.691093   # C_3
 459 1 4   0.072087  19.496910  13.448000  18.006872   # H_
 460 1 3   0.035600  18.275832  13.448000  20.387168   # C_3
 461 1 5  -0.187769  22.631101  13.445848  21.332831   # N_3
 462 1 3  -0.089430  19.956832  13.448000  22.068168   # C_3
 463 1 3  -0.016339  17.339851  13.448000  21.360803   # C_3
 464 1 5  -0.184987  17.652921  13.627934  18.916495   # N_3
 465 1 3   0.047351  18.983197  13.448000  23.004149   # C_3
 466 1 4   0.097400  20.847090  13.448000  22.337128   # H_
 467 1 3  -0.095751  17.657224  13.448000  22.686776   # C_3
 468 1 3   0.469662  16.600211  13.448000  23.743789   # C_3
 469 1 4   0.059398  16.444214  13.448000  21.116050   # H_
 470 1 4   0.065714  19.227950  13.448000  23.899786   # H_
 471 1 2  -0.616438  15.381822  13.448000  23.329590   # O_3
 472 1 2  -0.555077  17.014410  13.448000  24.962178   # O_3
 473 1 4   0.088775  17.657493  14.594308  18.573302   # H_
 474 1 4   0.082710  16.717209  13.167744  18.810524   # H_
 475 1 4   0.116914  23.129484  12.547522  21.502276   # H_
 476 1 4   0.117119  23.337121  14.225025  21.347624   # H_
 477 1 2  -0.616056  23.329590  13.448000  11.514178   # O_3
 478 1 3   0.464029  23.743789  13.448000  10.295789   # C_3
 479 1 2  -0.554714  24.962178  13.448000   9.881590   # O_3
 480 1 3  -0.081831  22.686776  13.448000   9.238776   # C_3
 481 1 3   0.026912  21.360803  13.448000   9.556149   # C_3
 482 1 3  -0.040753  23.004149  13.448000   7.912803   # C_3
 483 1 3  -0.077494  20.387168  13.448000   8.620168   # C_3
 484 1 4   0.040118  21.116050  13.448000  10.451786   # H_
 485 1 3   0.064840  22.068168  13.448000   6.939168   # C_3
 486 1 4   0.091518  23.899786  13.448000   7.668050   # H_
 487 1 3   0.002936  20.691093  13.448000   7.243093   # C_3