 (written by mofun)

432 atoms
0 bonds
0 angles
0 dihedrals
0 impropers

4 atom types
   0.000000  20.700400 xlo xhi
   0.000000  20.700400 ylo yhi
   0.000000  20.700400 zlo zhi

Masses

 1 91.2240   # Zr3+4
 2 15.9994   # O_3
 3 12.0107   # C_3
 4 1.0079   # H_

Pair Coeffs

 1   0.069000   2.783168 # Zr3+4
 2   0.060000   3.118146 # O_3
 3   0.105000   3.430851 # C_3
 4   0.044000   2.571134 # H_

Atoms

 1 1 1   3.165850   2.481771   0.000000   0.000000   # Zr3+4
 2 1 1   3.190320   2.481771  10.350200  10.350200   # Zr3+4
 3 1 1   3.175320  12.831971   0.000000  10.350200   # Zr3+4
 4 1 1   3.179560  12.831971  10.350200   0.000000   # Zr3+4
 5 1 1   3.164000  18.218629   0.000000   0.000000   # Zr3+4
 6 1 1   3.191150  18.218629  10.350200  10.350200   # Zr3+4
 7 1 1   3.177910   7.868429   0.000000  10.350200   # Zr3+4
 8 1 1   3.176650   7.868429  10.350200   0.000000   # Zr3+4
 9 1 1   3.165860   0.000000   2.481771   0.000000   # Zr3+4
 10 1 1   3.143550   0.000000  12.831971  10.350200   # Zr3+4
 11 1 1   3.190330  10.350200   2.481771  10.350200   # Zr3+4
 12 1 1   3.179570  10.350200  12.831971   0.000000   # Zr3+4
 13 1 1   3.164000   0.000000  18.218629   0.000000   # Zr3+4
 14 1 1   3.209680   0.000000   7.868429  10.350200   # Zr3+4
 15 1 1   3.191140  10.350200  18.218629  10.350200   # Zr3+4
 16 1 1   3.176650  10.350200   7.868429   0.000000   # Zr3+4
 17 1 1   3.195600   0.000000   0.000000   2.481771   # Zr3+4
 18 1 1   3.175300   0.000000  10.350200  12.831971   # Zr3+4
 19 1 1   3.143540  10.350200   0.000000  12.831971   # Zr3+4
 20 1 1   3.190870  10.350200  10.350200   2.481771   # Zr3+4
 21 1 1   3.132480   0.000000   0.000000  18.218629   # Zr3+4
 22 1 1   3.177910   0.000000  10.350200   7.868429   # Zr3+4
 23 1 1   3.209680  10.350200   0.000000   7.868429   # Zr3+4
 24 1 1   3.191700  10.350200  10.350200  18.218629   # Zr3+4
 25 1 2  -0.714915   3.528797   0.000000   1.972748   # O_3
 26 1 3   0.007560   5.537357   0.000000   3.817154   # C_3
 27 1 4   0.007567   5.769615   0.000000   2.700988   # H_
 28 1 2  -0.743818   3.528797  10.350200  12.322948   # O_3
 29 1 3   0.023893   5.537357  10.350200  14.167354   # C_3
 30 1 4   0.036281   5.769615  10.350200  13.051188   # H_
 31 1 2  -0.789108  13.878997   0.000000  12.322948   # O_3
 32 1 3   0.022853  15.887557   0.000000  14.167354   # C_3
 33 1 4   0.026550  16.119815   0.000000  13.051188   # H_
 34 1 2  -0.662984  13.878997  10.350200   1.972748   # O_3
 35 1 3   0.031997  15.887557  10.350200   3.817154   # C_3
 36 1 4   0.042933  16.119815  10.350200   2.700988   # H_
 37 1 2  -0.706540  17.171603   0.000000   1.972748   # O_3
 38 1 3   0.004535  15.163043   0.000000   3.817154   # C_3
 39 1 4   0.011033  14.930785   0.000000   2.700988   # H_
 40 1 2  -0.649498  17.171603  10.350200  12.322948   # O_3
 41 1 3   0.021534  15.163043  10.350200  14.167354   # C_3
 42 1 4   0.039953  14.930785  10.350200  13.051188   # H_
 43 1 2  -0.785937   6.821403   0.000000  12.322948   # O_3
 44 1 3   0.007897   4.812843   0.000000  14.167354   # C_3
 45 1 4   0.010445   4.580585   0.000000  13.051188   # H_
 46 1 2  -0.752176   6.821403  10.350200   1.972748   # O_3
 47 1 3   0.016199   4.812843  10.350200   3.817154   # C_3
 48 1 4   0.026463   4.580585  10.350200   2.700988   # H_
 49 1 2  -0.710973  17.171603   0.000000  18.727652   # O_3
 50 1 3   0.007175  15.163043   0.000000  16.883246   # C_3
 51 1 4   0.050897  14.930785   0.000000  17.999412   # H_
 52 1 2  -0.728070  17.171603  10.350200   8.377452   # O_3
 53 1 3   0.014898  15.163043  10.350200   6.533046   # C_3
 54 1 4   0.040023  14.930785  10.350200   7.649212   # H_
 55 1 2  -0.707869   6.821403   0.000000   8.377452   # O_3
 56 1 3   0.003094   4.812843   0.000000   6.533046   # C_3
 57 1 4   0.011737   4.580585   0.000000   7.649212   # H_
 58 1 2  -0.596545   6.821403  10.350200  18.727652   # O_3
 59 1 3   0.020733   4.812843  10.350200  16.883246   # C_3
 60 1 4   0.067815   4.580585  10.350200  17.999412   # H_
 61 1 2  -0.718655   3.528797   0.000000  18.727652   # O_3
 62 1 3   0.010558   5.537357   0.000000  16.883246   # C_3
 63 1 4   0.048014   5.769615   0.000000  17.999412   # H_
 64 1 2  -0.658795   3.528797  10.350200   8.377452   # O_3
 65 1 3   0.018850   5.537357  10.350200   6.533046   # C_3
 66 1 4   0.037075   5.769615  10.350200   7.649212   # H_
 67 1 2  -0.704279  13.878997   0.000000   8.377452   # O_3
 68 1 3   0.017919  15.887557   0.000000   6.533046   # C_3
 69 1 4   0.027547  16.119815   0.000000   7.649212   # H_
 70 1 2  -0.668669  13.878997  10.350200  18.727652   # O_3
 71 1 3   0.034835  15.887557  10.350200  16.883246   # C_3
 72 1 4   0.083246  16.119815  10.350200  17.999412   # H_
 73 1 2  -0.712274   1.972748   3.528797   0.000000   # O_3
 74 1 3   0.008348   3.817154   5.537357   0.000000   # C_3
 75 1 4   0.008479   2.700988   5.769615   0.000000   # H_
 76 1 2  -0.759848   1.972748  13.878997  10.350200   # O_3
 77 1 3   0.031080   3.817154  15.887557  10.350200   # C_3
 78 1 4   0.041274   2.700988  16.119815  10.350200   # H_
 79 1 2  -0.743672  12.322948   3.528797  10.350200   # O_3
 80 1 3   0.024815  14.167354   5.537357  10.350200   # C_3
 81 1 4   0.036444  13.051188   5.769615  10.350200   # H_
 82 1 2  -0.776709  12.322948  13.878997   0.000000   # O_3
 83 1 3   0.024363  14.167354  15.887557   0.000000   # C_3
 84 1 4   0.028467  13.051188  16.119815   0.000000   # H_
 85 1 2  -0.779886   1.972748  17.171603   0.000000   # O_3
 86 1 3   0.004018   3.817154  15.163043   0.000000   # C_3
 87 1 4   0.011100   2.700988  14.930785   0.000000   # H_
 88 1 2  -0.658506   1.972748   6.821403  10.350200   # O_3
 89 1 3   0.016686   3.817154   4.812843  10.350200   # C_3
 90 1 4   0.026758   2.700988   4.580585  10.350200   # H_
 91 1 2  -0.649391  12.322948  17.171603  10.350200   # O_3
 92 1 3   0.021758  14.167354  15.163043  10.350200   # C_3
 93 1 4   0.040059  13.051188  14.930785  10.350200   # H_
 94 1 2  -0.705018  12.322948   6.821403   0.000000   # O_3
 95 1 3   0.010103  14.167354   4.812843   0.000000   # C_3
 96 1 4   0.012577  13.051188   4.580585   0.000000   # H_
 97 1 2  -0.627401  18.727652  17.171603   0.000000   # O_3
 98 1 3   0.009531  16.883246  15.163043   0.000000   # C_3
 99 1 4   0.055464  17.999412  14.930785   0.000000   # H_
 100 1 2  -0.581709  18.727652   6.821403  10.350200   # O_3
 101 1 3   0.020357  16.883246   4.812843  10.350200   # C_3
 102 1 4   0.070361  17.999412   4.580585  10.350200   # H_
 103 1 2  -0.728325   8.377452  17.171603  10.350200   # O_3
 104 1 3   0.013739   6.533046  15.163043  10.350200   # C_3
 105 1 4   0.039677   7.649212  14.930785  10.350200   # H_
 106 1 2  -0.789194   8.377452   6.821403   0.000000   # O_3
 107 1 3   0.002939   6.533046   4.812843   0.000000   # C_3
 108 1 4   0.012532   7.649212   4.580585   0.000000   # H_
 109 1 2  -0.711158  18.727652   3.528797   0.000000   # O_3
 110 1 3   0.012005  16.883246   5.537357   0.000000   # C_3
 111 1 4   0.052129  17.999412   5.769615   0.000000   # H_
 112 1 2  -0.675861  18.727652  13.878997  10.350200   # O_3
 113 1 3   0.036312  16.883246  15.887557  10.350200   # C_3
 114 1 4   0.085713  17.999412  16.119815  10.350200   # H_
 115 1 2  -0.658830   8.377452   3.528797  10.350200   # O_3
 116 1 3   0.019321   6.533046   5.537357  10.350200   # C_3
 117 1 4   0.037084   7.649212   5.769615  10.350200   # H_
 118 1 2  -0.700206   8.377452  13.878997   0.000000   # O_3
 119 1 3   0.018198   6.533046  15.887557   0.000000   # C_3
 120 1 4   0.028674   7.649212  16.119815   0.000000   # H_
 121 1 2  -0.706017   0.000000   1.972748   3.528797   # O_3
 122 1 3   0.007499   0.000000   3.817154   5.537357   # C_3
 123 1 4   0.007358   0.000000   2.700988   5.769615   # H_
 124 1 2  -0.789489   0.000000  12.322948  13.878997   # O_3
 125 1 3   0.022129   0.000000  14.167354  15.887557   # C_3
 126 1 4   0.025461   0.000000  13.051188  16.119815   # H_
 127 1 2  -0.759900  10.350200   1.972748  13.878997   # O_3
 128 1 3   0.030890  10.350200   3.817154  15.887557   # C_3
 129 1 4   0.040798  10.350200   2.700988  16.119815   # H_
 130 1 2  -0.658163  10.350200  12.322948   3.528797   # O_3
 131 1 3   0.026040  10.350200  14.167354   5.537357   # C_3
 132 1 4   0.037047  10.350200  13.051188   5.769615   # H_
 133 1 2  -0.792805   0.000000   1.972748  17.171603   # O_3
 134 1 3   0.004573   0.000000   3.817154  15.163043   # C_3
 135 1 4   0.009335   0.000000   2.700988  14.930785   # H_
 136 1 2  -0.785609   0.000000  12.322948   6.821403   # O_3
 137 1 3   0.009846   0.000000  14.167354   4.812843   # C_3
 138 1 4   0.011078   0.000000  13.051188   4.580585   # H_
 139 1 2  -0.658510  10.350200   1.972748   6.821403   # O_3
 140 1 3   0.016376  10.350200   3.817154   4.812843   # C_3
 141 1 4   0.026743  10.350200   2.700988   4.580585   # H_
 142 1 2  -0.727230  10.350200  12.322948  17.171603   # O_3
 143 1 3   0.020348  10.350200  14.167354  15.163043   # C_3
 144 1 4   0.039157  10.350200  13.051188  14.930785   # H_
 145 1 2  -0.716707   0.000000  18.727652  17.171603   # O_3
 146 1 3   0.007678   0.000000  16.883246  15.163043   # C_3
 147 1 4   0.052894   0.000000  17.999412  14.930785   # H_
 148 1 2  -0.707919   0.000000   8.377452   6.821403   # O_3
 149 1 3   0.002944   0.000000   6.533046   4.812843   # C_3
 150 1 4   0.011771   0.000000   7.649212   4.580585   # H_
 151 1 2  -0.581373  10.350200  18.727652   6.821403   # O_3
 152 1 3   0.021356  10.350200  16.883246   4.812843   # C_3
 153 1 4   0.071132  10.350200  17.999412   4.580585   # H_
 154 1 2  -0.650227  10.350200   8.377452  17.171603   # O_3
 155 1 3   0.015300  10.350200   6.533046  15.163043   # C_3
 156 1 4   0.040145  10.350200   7.649212  14.930785   # H_
 157 1 2  -0.629181   0.000000  18.727652   3.528797   # O_3
 158 1 3   0.010987   0.000000  16.883246   5.537357   # C_3
 159 1 4   0.051274   0.000000  17.999412   5.769615   # H_
 160 1 2  -0.704520   0.000000   8.377452  13.878997   # O_3
 161 1 3   0.016147   0.000000   6.533046  15.887557   # C_3
 162 1 4   0.026753   0.000000   7.649212  16.119815   # H_
 163 1 2  -0.676469  10.350200  18.727652  13.878997   # O_3
 164 1 3   0.034677  10.350200  16.883246  15.887557   # C_3
 165 1 4   0.084300  10.350200  17.999412  16.119815   # H_
 166 1 2  -0.742505  10.350200   8.377452   3.528797   # O_3
 167 1 3   0.018206  10.350200   6.533046   5.537357   # C_3
 168 1 4   0.036662  10.350200   7.649212   5.769615   # H_
 169 1 2  -0.718547   0.000000   3.528797  18.727652   # O_3
 170 1 3   0.011712   0.000000   5.537357  16.883246   # C_3
 171 1 4   0.048194   0.000000   5.769615  17.999412   # H_
 172 1 2  -0.792248   0.000000  13.878997   8.377452   # O_3
 173 1 3   0.018239   0.000000  15.887557   6.533046   # C_3
 174 1 4   0.026878   0.000000  16.119815   7.649212   # H_
 175 1 2  -0.658851  10.350200   3.528797   8.377452   # O_3
 176 1 3   0.018255  10.350200   5.537357   6.533046   # C_3
 177 1 4   0.037181  10.350200   5.769615   7.649212   # H_
 178 1 2  -0.668789  10.350200  13.878997  18.727652   # O_3
 179 1 3   0.033952  10.350200  15.887557  16.883246   # C_3
 180 1 4   0.083005  10.350200  16.119815  17.999412   # H_
 181 1 2  -0.711112   0.000000  17.171603  18.727652   # O_3
 182 1 3   0.007056   0.000000  15.163043  16.883246   # C_3
 183 1 4   0.050783   0.000000  14.930785  17.999412   # H_
 184 1 2  -0.698151   0.000000   6.821403   8.377452   # O_3
 185 1 3   0.002888   0.000000   4.812843   6.533046   # C_3
 186 1 4   0.011773   0.000000   4.580585   7.649212   # H_
 187 1 2  -0.649778  10.350200  17.171603   8.377452   # O_3
 188 1 3   0.015389  10.350200  15.163043   6.533046   # C_3
 189 1 4   0.040539  10.350200  14.930785   7.649212   # H_
 190 1 2  -0.596433  10.350200   6.821403  18.727652   # O_3
 191 1 3   0.020594  10.350200   4.812843  16.883246   # C_3
 192 1 4   0.067964  10.350200   4.580585  17.999412   # H_
 193 1 2  -0.706562   0.000000  17.171603   1.972748   # O_3
 194 1 3   0.003576   0.000000  15.163043   3.817154   # C_3
 195 1 4   0.010921   0.000000  14.930785   2.700988   # H_
 196 1 2  -0.697805   0.000000   6.821403  12.322948   # O_3
 197 1 3   0.007932   0.000000   4.812843  14.167354   # C_3
 198 1 4   0.011355   0.000000   4.580585  13.051188   # H_
 199 1 2  -0.727957  10.350200  17.171603  12.322948   # O_3
 200 1 3   0.020789  10.350200  15.163043  14.167354   # C_3
 201 1 4   0.039184  10.350200  14.930785  13.051188   # H_
 202 1 2  -0.752195  10.350200   6.821403   1.972748   # O_3
 203 1 3   0.016517  10.350200   4.812843   3.817154   # C_3
 204 1 4   0.026392  10.350200   4.580585   2.700988   # H_
 205 1 2  -0.714899   0.000000   3.528797   1.972748   # O_3
 206 1 3   0.007509   0.000000   5.537357   3.817154   # C_3
 207 1 4   0.007591   0.000000   5.769615   2.700988   # H_
 208 1 2  -0.799007   0.000000  13.878997  12.322948   # O_3
 209 1 3   0.022726   0.000000  15.887557  14.167354   # C_3
 210 1 4   0.026245   0.000000  16.119815  13.051188   # H_
 211 1 2  -0.743589  10.350200   3.528797  12.322948   # O_3
 212 1 3   0.024785  10.350200   5.537357  14.167354   # C_3
 213 1 4   0.036428  10.350200   5.769615  13.051188   # H_
 214 1 2  -0.662930  10.350200  13.878997   1.972748   # O_3
 215 1 3   0.032745  10.350200  15.887557   3.817154   # C_3
 216 1 4   0.043091  10.350200  16.119815   2.700988   # H_
 217 1 2  -0.712268   3.528797   1.972748   0.000000   # O_3
 218 1 3   0.008385   5.537357   3.817154   0.000000   # C_3
 219 1 4   0.008473   5.769615   2.700988   0.000000   # H_
 220 1 2  -0.743735   3.528797  12.322948  10.350200   # O_3
 221 1 3   0.024578   5.537357  14.167354  10.350200   # C_3
 222 1 4   0.036096   5.769615  13.051188  10.350200   # H_
 223 1 2  -0.750042  13.878997   1.972748  10.350200   # O_3
 224 1 3   0.031205  15.887557   3.817154  10.350200   # C_3
 225 1 4   0.041655  16.119815   2.700988  10.350200   # H_
 226 1 2  -0.776774  13.878997  12.322948   0.000000   # O_3
 227 1 3   0.024221  15.887557  14.167354   0.000000   # C_3
 228 1 4   0.028301  16.119815  13.051188   0.000000   # H_
 229 1 2  -0.779813  17.171603   1.972748   0.000000   # O_3
 230 1 3   0.004161  15.163043   3.817154   0.000000   # C_3
 231 1 4   0.011162  14.930785   2.700988   0.000000   # H_
 232 1 2  -0.727687  17.171603  12.322948  10.350200   # O_3
 233 1 3   0.021829  15.163043  14.167354  10.350200   # C_3
 234 1 4   0.039562  14.930785  13.051188  10.350200   # H_
 235 1 2  -0.668198   6.821403   1.972748  10.350200   # O_3
 236 1 3   0.017774   4.812843   3.817154  10.350200   # C_3
 237 1 4   0.026537   4.580585   2.700988  10.350200   # H_
 238 1 2  -0.705077   6.821403  12.322948   0.000000   # O_3
 239 1 3   0.009972   4.812843  14.167354   0.000000   # C_3
 240 1 4   0.012520   4.580585  13.051188   0.000000   # H_
 241 1 2  -0.627328  17.171603  18.727652   0.000000   # O_3
 242 1 3   0.009685  15.163043  16.883246   0.000000   # C_3
 243 1 4   0.055642  14.930785  17.999412   0.000000   # H_
 244 1 2  -0.649873  17.171603   8.377452  10.350200   # O_3
 245 1 3   0.014784  15.163043   6.533046  10.350200   # C_3
 246 1 4   0.040384  14.930785   7.649212  10.350200   # H_
 247 1 2  -0.669890   6.821403  18.727652  10.350200   # O_3
 248 1 3   0.019478   4.812843  16.883246  10.350200   # C_3
 249 1 4   0.069614   4.580585  17.999412  10.350200   # H_
 250 1 2  -0.789193   6.821403   8.377452   0.000000   # O_3
 251 1 3   0.002947   4.812843   6.533046   0.000000   # C_3
 252 1 4   0.012520   4.580585   7.649212   0.000000   # H_
 253 1 2  -0.711312   3.528797  18.727652   0.000000   # O_3
 254 1 3   0.011718   5.537357  16.883246   0.000000   # C_3
 255 1 4   0.051880   5.769615  17.999412   0.000000   # H_
 256 1 2  -0.658878   3.528797   8.377452  10.350200   # O_3
 257 1 3   0.018490   5.537357   6.533046  10.350200   # C_3
 258 1 4   0.037222   5.769615   7.649212  10.350200   # H_
 259 1 2  -0.587817  13.878997  18.727652  10.350200   # O_3
 260 1 3   0.036028  15.887557  16.883246  10.350200   # C_3
 261 1 4   0.086287  16.119815  17.999412  10.350200   # H_
 262 1 2  -0.700057  13.878997   8.377452   0.000000   # O_3
 263 1 3   0.018517  15.887557   6.533046   0.000000   # C_3
 264 1 4   0.028913  16.119815   7.649212   0.000000   # H_
 265 1 2  -0.792903   1.972748   0.000000  17.171603   # O_3
 266 1 3   0.003416   3.817154   0.000000  15.163043   # C_3
 267 1 4   0.009156   2.700988   0.000000  14.930785   # H_
 268 1 2  -0.668179   1.972748  10.350200   6.821403   # O_3
 269 1 3   0.017162   3.817154  10.350200   4.812843   # C_3
 270 1 4   0.026599   2.700988  10.350200   4.580585   # H_
 271 1 2  -0.697569  12.322948   0.000000   6.821403   # O_3
 272 1 3   0.009692  14.167354   0.000000   4.812843   # C_3
 273 1 4   0.011906  13.051188   0.000000   4.580585   # H_
 274 1 2  -0.727104  12.322948  10.350200  17.171603   # O_3
 275 1 3   0.021212  14.167354  10.350200  15.163043   # C_3
 276 1 4   0.039399  13.051188  10.350200  14.930785   # H_
 277 1 2  -0.705990   1.972748   0.000000   3.528797   # O_3
 278 1 3   0.007500   3.817154   0.000000   5.537357   # C_3
 279 1 4   0.007391   2.700988   0.000000   5.769615   # H_
 280 1 2  -0.750310   1.972748  10.350200  13.878997   # O_3
 281 1 3   0.029969   3.817154  10.350200  15.887557   # C_3
 282 1 4   0.040871   2.700988  10.350200  16.119815   # H_
 283 1 2  -0.799119  12.322948   0.000000  13.878997   # O_3
 284 1 3   0.022505  14.167354   0.000000  15.887557   # C_3
 285 1 4   0.025491  13.051188   0.000000  16.119815   # H_
 286 1 2  -0.658147  12.322948  10.350200   3.528797   # O_3
 287 1 3   0.025498  14.167354  10.350200   5.537357   # C_3
 288 1 4   0.037029  13.051188  10.350200   5.769615   # H_
 289 1 2  -0.629220  18.727652   0.000000   3.528797   # O_3
 290 1 3   0.011821  16.883246   0.000000   5.537357   # C_3
 291 1 4   0.051214  17.999412   0.000000   5.769615   # H_
 292 1 2  -0.588253  18.727652  10.350200  13.878997   # O_3
 293 1 3   0.035267  16.883246  10.350200  15.887557   # C_3
 294 1 4   0.085120  17.999412  10.350200  16.119815   # H_
 295 1 2  -0.792634   8.377452   0.000000  13.878997   # O_3
 296 1 3   0.016140   6.533046   0.000000  15.887557   # C_3
 297 1 4   0.025860   7.649212   0.000000  16.119815   # H_
 298 1 2  -0.742486   8.377452  10.350200   3.528797   # O_3
 299 1 3   0.017938   6.533046  10.350200   5.537357   # C_3
 300 1 4   0.036722   7.649212  10.350200   5.769615   # H_
 301 1 2  -0.716502  18.727652   0.000000  17.171603   # O_3
 302 1 3   0.008054  16.883246   0.000000  15.163043   # C_3
 303 1 4   0.053140  17.999412   0.000000  14.930785   # H_
 304 1 2  -0.669457  18.727652  10.350200   6.821403   # O_3
 305 1 3   0.020939  16.883246  10.350200   4.812843   # C_3
 306 1 4   0.070395  17.999412  10.350200   4.580585   # H_
 307 1 2  -0.698167   8.377452   0.000000   6.821403   # O_3
 308 1 3   0.002780   6.533046   0.000000   4.812843   # C_3
 309 1 4   0.011828   7.649212   0.000000   4.580585   # H_
 310 1 2  -0.650386   8.377452  10.350200  17.171603   # O_3
 311 1 3   0.015280   6.533046  10.350200  15.163043   # C_3
 312 1 4   0.039857   7.649212  10.350200  14.930785   # H_
 313 1 2  -1.316620   1.161292   9.188908   9.188908   # O_3
 314 1 2  -1.209070  11.511492  19.539108   9.188908   # O_3
 315 1 2  -1.318080  11.511492   9.188908  19.539108   # O_3
 316 1 2  -1.316620   9.188908   1.161292   9.188908   # O_3
 317 1 2  -1.318180   9.188908  11.511492  19.539108   # O_3
 318 1 2  -1.161650  19.539108  19.539108   1.161292   # O_3
 319 1 2  -1.209210  19.539108   9.188908  11.511492   # O_3
 320 1 2  -1.374890   1.161292   1.161292   1.161292   # O_3
 321 1 2  -1.417660  11.511492  11.511492   1.161292   # O_3
 322 1 2  -1.350960  19.539108   1.161292   1.161292   # O_3
 323 1 2  -1.431400  19.539108  11.511492  11.511492   # O_3
 324 1 2  -1.538710   9.188908   1.161292  11.511492   # O_3
 325 1 2  -1.426940   9.188908  11.511492   1.161292   # O_3
 326 1 2  -1.350950   1.161292  19.539108   1.161292   # O_3
 327 1 2  -1.411680   1.161292   9.188908  11.511492   # O_3
 328 1 2  -1.431430  11.511492  19.539108  11.511492   # O_3
 329 1 2  -1.426950  11.511492   9.188908   1.161292   # O_3
 330 1 2  -1.270550  19.539108  19.539108  19.539108   # O_3
 331 1 2  -1.293580  19.539108   9.188908   9.188908   # O_3
 332 1 2  -1.293620   9.188908  19.539108   9.188908   # O_3
 333 1 2  -1.327090   9.188908   9.188908  19.539108   # O_3
 334 1 2  -1.480450   1.161292   1.161292  19.539108   # O_3
 335 1 2  -1.538680   1.161292  11.511492   9.188908   # O_3
 336 1 2  -1.411660  11.511492   1.161292   9.188908   # O_3
 337 1 3   0.535119   3.179581   0.000000  17.520819   # C_3
 338 1 3   0.549003   3.179581  10.350200   7.170619   # C_3
 339 1 3   0.543102  13.529781   0.000000   7.170619   # C_3
 340 1 3   0.531494  13.529781  10.350200  17.520819   # C_3
 341 1 3   0.524233  17.520819   0.000000  17.520819   # C_3
 342 1 3   0.528815  17.520819  10.350200   7.170619   # C_3
 343 1 3   0.540384   7.170619   0.000000   7.170619   # C_3
 344 1 3   0.538049   7.170619  10.350200  17.520819   # C_3
 345 1 3   0.537139  17.520819   0.000000   3.179581   # C_3
 346 1 3   0.540026  17.520819  10.350200  13.529781   # C_3
 347 1 3   0.540165   7.170619   0.000000  13.529781   # C_3
 348 1 3   0.539409   7.170619  10.350200   3.179581   # C_3
 349 1 3   0.548164   3.179581   0.000000   3.179581   # C_3
 350 1 3   0.541655   3.179581  10.350200  13.529781   # C_3
 351 1 3   0.542060  13.529781   0.000000  13.529781   # C_3
 352 1 3   0.551077  13.529781  10.350200   3.179581   # C_3
 353 1 3   0.531769  17.520819   3.179581   0.000000   # C_3
 354 1 3   0.534672  17.520819  13.529781  10.350200   # C_3
 355 1 3   0.549079   7.170619   3.179581  10.350200   # C_3
 356 1 3   0.545914   7.170619  13.529781   0.000000   # C_3
 357 1 3   0.529492  17.520819  17.520819   0.000000   # C_3
 358 1 3   0.534212  17.520819   7.170619  10.350200   # C_3
 359 1 3   0.528382   7.170619  17.520819  10.350200   # C_3
 360 1 3   0.534580   7.170619   7.170619   0.000000   # C_3
 361 1 3   0.531658   3.179581  17.520819   0.000000   # C_3
 362 1 3   0.545730   3.179581   7.170619  10.350200   # C_3
 363 1 3   0.540206  13.529781  17.520819  10.350200   # C_3
 364 1 3   0.546059  13.529781   7.170619   0.000000   # C_3
 365 1 3   0.551542   3.179581   3.179581   0.000000   # C_3
 366 1 3   0.545017   3.179581  13.529781  10.350200   # C_3
 367 1 3   0.541973  13.529781   3.179581  10.350200   # C_3
 368 1 3   0.539479  13.529781  13.529781   0.000000   # C_3
 369 1 3   0.536973   0.000000  17.520819   3.179581   # C_3
 370 1 3   0.542657   0.000000   7.170619  13.529781   # C_3
 371 1 3   0.534271  10.350200  17.520819  13.529781   # C_3
 372 1 3   0.539486  10.350200   7.170619   3.179581   # C_3
 373 1 3   0.524091   0.000000  17.520819  17.520819   # C_3
 374 1 3   0.540370   0.000000   7.170619   7.170619   # C_3
 375 1 3   0.534459  10.350200  17.520819   7.170619   # C_3
 376 1 3   0.538112  10.350200   7.170619  17.520819   # C_3
 377 1 3   0.535453   0.000000   3.179581  17.520819   # C_3
 378 1 3   0.540777   0.000000  13.529781   7.170619   # C_3
 379 1 3   0.545695  10.350200   3.179581   7.170619   # C_3
 380 1 3   0.531230  10.350200  13.529781  17.520819   # C_3
 381 1 3   0.548132   0.000000   3.179581   3.179581   # C_3
 382 1 3   0.541896   0.000000  13.529781  13.529781   # C_3
 383 1 3   0.545065  10.350200   3.179581  13.529781   # C_3
 384 1 3   0.551184  10.350200  13.529781   3.179581   # C_3
 385 1 3  -0.162515   4.243582   0.000000   4.243582   # C_3
 386 1 3  -0.147283   4.243582  10.350200  14.593782   # C_3
 387 1 3  -0.165398  14.593782   0.000000  14.593782   # C_3
 388 1 3  -0.142982  14.593782  10.350200   4.243582   # C_3
 389 1 3  -0.141782  16.456818   0.000000   4.243582   # C_3
 390 1 3  -0.122814  16.456818  10.350200  14.593782   # C_3
 391 1 3  -0.164089   6.106618   0.000000  14.593782   # C_3
 392 1 3  -0.145802   6.106618  10.350200   4.243582   # C_3
 393 1 3  -0.128270  16.456818   0.000000  16.456818   # C_3
 394 1 3  -0.124807  16.456818  10.350200   6.106618   # C_3
 395 1 3  -0.157297   6.106618   0.000000   6.106618   # C_3
 396 1 3  -0.123005   6.106618  10.350200  16.456818   # C_3
 397 1 3  -0.148731   4.243582   0.000000  16.456818   # C_3
 398 1 3  -0.142285   4.243582  10.350200   6.106618   # C_3
 399 1 3  -0.158292  14.593782   0.000000   6.106618   # C_3
 400 1 3  -0.127234  14.593782  10.350200  16.456818   # C_3
 401 1 3  -0.162468   4.243582   4.243582   0.000000   # C_3
 402 1 3  -0.148690   4.243582  14.593782  10.350200   # C_3
 403 1 3  -0.147456  14.593782   4.243582  10.350200   # C_3
 404 1 3  -0.162355  14.593782  14.593782   0.000000   # C_3
 405 1 3  -0.145370   4.243582  16.456818   0.000000   # C_3
 406 1 3  -0.140961   4.243582   6.106618  10.350200   # C_3
 407 1 3  -0.122398  14.593782  16.456818  10.350200   # C_3
 408 1 3  -0.158253  14.593782   6.106618   0.000000   # C_3
 409 1 3  -0.121321  16.456818  16.456818   0.000000   # C_3
 410 1 3  -0.120580  16.456818   6.106618  10.350200   # C_3
 411 1 3  -0.125204   6.106618  16.456818  10.350200   # C_3
 412 1 3  -0.160887   6.106618   6.106618   0.000000   # C_3
 413 1 3  -0.145202  16.456818   4.243582   0.000000   # C_3
 414 1 3  -0.127072  16.456818  14.593782  10.350200   # C_3
 415 1 3  -0.142255   6.106618   4.243582  10.350200   # C_3
 416 1 3  -0.158424   6.106618  14.593782   0.000000   # C_3
 417 1 3  -0.162532   0.000000   4.243582   4.243582   # C_3
 418 1 3  -0.165594   0.000000  14.593782  14.593782   # C_3
 419 1 3  -0.148143  10.350200   4.243582  14.593782   # C_3
 420 1 3  -0.142956  10.350200  14.593782   4.243582   # C_3
 421 1 3  -0.148780   0.000000   4.243582  16.456818   # C_3
 422 1 3  -0.164017   0.000000  14.593782   6.106618   # C_3
 423 1 3  -0.141252  10.350200   4.243582   6.106618   # C_3
 424 1 3  -0.127435  10.350200  14.593782  16.456818   # C_3
 425 1 3  -0.128471   0.000000  16.456818  16.456818   # C_3
 426 1 3  -0.157313   0.000000   6.106618   6.106618   # C_3
 427 1 3  -0.120095  10.350200  16.456818   6.106618   # C_3
 428 1 3  -0.122565  10.350200   6.106618  16.456818   # C_3
 429 1 3  -0.141543   0.000000  16.456818   4.243582   # C_3
 430 1 3  -0.158173   0.000000   6.106618  14.593782   # C_3
 431 1 3  -0.127711  10.350200  16.456818  14.593782   # C_3
 432 1 3  -0.146071  10.350200   6.106618   4.243582   # C_3
