 (written by mofun)

1040 atoms
0 bonds
0 angles
0 dihedrals
0 impropers

5 atom types
   0.000000  26.896000 xlo xhi
   0.000000  26.896000 ylo yhi
   0.000000  26.896000 zlo zhi

Masses

 1 91.2240   # Zr3+4
 2 15.9994   # O_3
 3 12.0107   # C_3
 4 1.0079   # H_
 5 14.0067   # N_3

Pair Coeffs

 1   0.069000   2.783168 # Zr3+4
 2   0.060000   3.118146 # O_3
 3   0.105000   3.430851 # C_3
 4   0.044000   2.571134 # H_
 5   0.069000   3.260689 # N_3

Atoms

 1 1 1   3.187880   2.475508   0.000000   0.000000   # Zr3+4
 2 1 1   3.187110  24.420492   0.000000   0.000000   # Zr3+4
 3 1 1   3.187310   0.000000   2.475508   0.000000   # Zr3+4
 4 1 1   3.186600   0.000000  24.420492   0.000000   # Zr3+4
 5 1 1   3.187440   0.000000   0.000000   2.475508   # Zr3+4
 6 1 1   3.186710   0.000000   0.000000  24.420492   # Zr3+4
 7 1 1   3.215110   2.475508  13.448000  13.448000   # Zr3+4
 8 1 1   3.213900  24.420492  13.448000  13.448000   # Zr3+4
 9 1 1   3.200470   0.000000  15.923508  13.448000   # Zr3+4
 10 1 1   3.200430   0.000000  10.972492  13.448000   # Zr3+4
 11 1 1   3.200670   0.000000  13.448000  15.923508   # Zr3+4
 12 1 1   3.200580   0.000000  13.448000  10.972492   # Zr3+4
 13 1 1   3.200940  15.923508   0.000000  13.448000   # Zr3+4
 14 1 1   3.200900  10.972492   0.000000  13.448000   # Zr3+4
 15 1 1   3.214930  13.448000   2.475508  13.448000   # Zr3+4
 16 1 1   3.213760  13.448000  24.420492  13.448000   # Zr3+4
 17 1 1   3.201060  13.448000   0.000000  15.923508   # Zr3+4
 18 1 1   3.201030  13.448000   0.000000  10.972492   # Zr3+4
 19 1 1   3.200800  15.923508  13.448000   0.000000   # Zr3+4
 20 1 1   3.200760  10.972492  13.448000   0.000000   # Zr3+4
 21 1 1   3.200820  13.448000  15.923508   0.000000   # Zr3+4
 22 1 1   3.200780  13.448000  10.972492   0.000000   # Zr3+4
 23 1 1   3.214710  13.448000  13.448000   2.475508   # Zr3+4
 24 1 1   3.213540  13.448000  13.448000  24.420492   # Zr3+4
 25 1 2  -1.331370   1.221078   1.221078   1.221078   # O_3
 26 1 2  -1.135820  25.674922  25.674922   1.221078   # O_3
 27 1 2  -1.134860  25.674922   1.221078  25.674922   # O_3
 28 1 2  -1.138910   1.221078  25.674922  25.674922   # O_3
 29 1 2  -1.233150   1.221078   1.221078  25.674922   # O_3
 30 1 2  -1.045610  25.674922  25.674922  25.674922   # O_3
 31 1 2  -1.234090   1.221078  25.674922   1.221078   # O_3
 32 1 2  -1.229990  25.674922   1.221078   1.221078   # O_3
 33 1 2  -1.275000   1.221078  14.669078  14.669078   # O_3
 34 1 2  -1.174430  25.674922  12.226922  14.669078   # O_3
 35 1 2  -1.174480  25.674922  14.669078  12.226922   # O_3
 36 1 2  -1.275330   1.221078  12.226922  12.226922   # O_3
 37 1 2  -1.275710   1.221078  14.669078  12.226922   # O_3
 38 1 2  -1.175080  25.674922  12.226922  12.226922   # O_3
 39 1 2  -1.275630   1.221078  12.226922  14.669078   # O_3
 40 1 2  -1.175600  25.674922  14.669078  14.669078   # O_3
 41 1 2  -1.273790  14.669078   1.221078  14.669078   # O_3
 42 1 2  -1.177310  12.226922  25.674922  14.669078   # O_3
 43 1 2  -1.274060  12.226922   1.221078  12.226922   # O_3
 44 1 2  -1.177290  14.669078  25.674922  12.226922   # O_3
 45 1 2  -1.274400  14.669078   1.221078  12.226922   # O_3
 46 1 2  -1.178320  12.226922  25.674922  12.226922   # O_3
 47 1 2  -1.178900  14.669078  25.674922  14.669078   # O_3
 48 1 2  -1.274400  12.226922   1.221078  14.669078   # O_3
 49 1 2  -1.274010  14.669078  14.669078   1.221078   # O_3
 50 1 2  -1.274280  12.226922  12.226922   1.221078   # O_3
 51 1 2  -1.176610  12.226922  14.669078  25.674922   # O_3
 52 1 2  -1.176590  14.669078  12.226922  25.674922   # O_3
 53 1 2  -1.177880  14.669078  14.669078  25.674922   # O_3
 54 1 2  -1.177330  12.226922  12.226922  25.674922   # O_3
 55 1 2  -1.274540  14.669078  12.226922   1.221078   # O_3
 56 1 2  -1.274570  12.226922  14.669078   1.221078   # O_3
 57 1 2  -0.686642   3.566410   0.000000   1.933822   # O_3
 58 1 3   0.512883   3.152211   0.000000   3.152211   # C_3
 59 1 2  -0.686802   1.933822   0.000000   3.566410   # O_3
 60 1 3  -0.240880   4.209224   0.000000   4.209224   # C_3
 61 1 3   0.141246   5.535197   0.000000   3.891851   # C_3
 62 1 3   0.139938   3.891851   0.000000   5.535197   # C_3
 63 1 3  -0.211129   6.508832   0.000000   4.827832   # C_3
 64 1 4  -0.032221   5.779950   0.000000   2.996214   # H_
 65 1 3  -0.208326   4.827832   0.000000   6.508832   # C_3
 66 1 4  -0.030954   2.996214   0.000000   5.779950   # H_
 67 1 3   0.104927   6.204907   0.000000   6.204907   # C_3
 68 1 3  -0.046261   7.243093   0.000000   7.243093   # C_3
 69 1 4   0.079912   7.399090   0.000000   4.558872   # H_
 70 1 3   0.005943   8.620168   0.000000   6.939168   # C_3
 71 1 4   0.069342   4.558872   0.000000   7.399090   # H_
 72 1 3  -0.092074   6.939168   0.000000   8.620168   # C_3
 73 1 3  -0.018786   9.556149   0.000000   7.912803   # C_3
 74 1 5  -0.203659   9.128233   0.496500   5.551065   # N_3
 75 1 3   0.024787   7.912803   0.000000   9.556149   # C_3
 76 1 4   0.018598   6.048910   0.000000   8.889128   # H_
 77 1 3  -0.145301   9.238776   0.000000   9.238776   # C_3
 78 1 3   0.471482  10.295789   0.000000  10.295789   # C_3
 79 1 4   0.017571  10.451786   0.000000   7.668050   # H_
 80 1 4  -0.003719   7.668050   0.000000  10.451786   # H_
 81 1 2  -0.676752  11.514178   0.000000   9.881590   # O_3
 82 1 2  -0.675955   9.881590   0.000000  11.514178   # O_3
 83 1 4   0.065859   9.551576   1.466908   5.679090   # H_
 84 1 3   0.098400   9.977878  26.513001   4.688242   # C_3
 85 1 3  -0.097379   9.929465  24.956798   4.921968   # C_3
 86 1 4   0.086257   8.958520  24.647763   5.357145   # H_
 87 1 3  -0.033219  11.114772  24.645074   5.829439   # C_3
 88 1 4   0.048304  10.088421  24.384720   3.959629   # H_
 89 1 3  -0.101695  12.106428  25.767713   5.586299   # C_3
 90 1 4   0.031213  11.531929  23.622488   5.776992   # H_
 91 1 4   0.071247  10.765931  24.761264   6.875156   # H_
 92 1 3   0.085080  11.433759  26.852966   4.787757   # C_3
 93 1 4   0.059959  12.970865  25.436623   4.987325   # H_
 94 1 4   0.101856  12.466834  26.197780   6.562893   # H_
 95 1 4   0.033903  11.881039  26.817195   3.761137   # H_
 96 1 4  -0.074368  11.667485   0.924416   5.211369   # H_
 97 1 4   0.046488   9.714835  26.823381   3.632305   # H_
 98 1 2  -0.676317  23.329590   0.000000   1.933822   # O_3
 99 1 3   0.496567  23.743789   0.000000   3.152211   # C_3
 100 1 2  -0.606839  24.962178   0.000000   3.566410   # O_3
 101 1 3  -0.196219  22.686776   0.000000   4.209224   # C_3
 102 1 3   0.114653  21.360803   0.000000   3.891851   # C_3
 103 1 3   0.111483  23.004149   0.000000   5.535197   # C_3
 104 1 3  -0.176431  20.387168   0.000000   4.827832   # C_3
 105 1 4  -0.016296  21.116050   0.000000   2.996214   # H_
 106 1 3  -0.164556  22.068168   0.000000   6.508832   # C_3
 107 1 4   0.019351  23.899786   0.000000   5.779950   # H_
 108 1 3   0.078257  20.691093   0.000000   6.204907   # C_3
 109 1 3  -0.001123  19.652907   0.000000   7.243093   # C_3
 110 1 4   0.073787  19.496910   0.000000   4.558872   # H_
 111 1 3  -0.060179  18.275832   0.000000   6.939168   # C_3
 112 1 4   0.080650  22.337128   0.000000   7.399090   # H_
 113 1 3  -0.118188  19.956832   0.000000   8.620168   # C_3
 114 1 3   0.025271  17.339851   0.000000   7.912803   # C_3
 115 1 5  -0.034452  17.767767  26.399500   5.551065   # N_3
 116 1 3   0.059862  18.983197   0.000000   9.556149   # C_3
 117 1 4   0.055534  20.847090   0.000000   8.889128   # H_
 118 1 3  -0.166259  17.657224   0.000000   9.238776   # C_3
 119 1 3   0.481511  16.600211   0.000000  10.295789   # C_3
 120 1 4   0.013994  16.444214   0.000000   7.668050   # H_
 121 1 4   0.004478  19.227950   0.000000  10.451786   # H_
 122 1 2  -0.674804  15.381822   0.000000   9.881590   # O_3
 123 1 2  -0.674312  17.014410   0.000000  11.514178   # O_3
 124 1 4   0.110917  17.344424  25.429092   5.679090   # H_
 125 1 3   0.010488  16.918122   0.382999   4.688242   # C_3
 126 1 3  -0.072037  16.966535   1.938933   4.921968   # C_3
 127 1 4   0.045181  17.937480   2.248237   5.357145   # H_
 128 1 3  -0.084253  15.781228   2.250926   5.829439   # C_3
 129 1 4   0.032925  16.807579   2.511280   3.959629   # H_
 130 1 3   0.015734  14.789572   1.128287   5.586299   # C_3
 131 1 4   0.041922  15.364071   3.273512   5.776992   # H_
 132 1 4   0.052898  16.130069   2.134736   6.875156   # H_
 133 1 3  -0.280608  15.462241   0.043034   4.787757   # C_3
 134 1 4  -0.004811  13.925135   1.459377   4.987325   # H_
 135 1 4  -0.012993  14.429166   0.698220   6.562893   # H_
 136 1 4   0.030540  15.014961   0.078805   3.761137   # H_
 137 1 4   0.172884  15.228515  25.971584   5.211369   # H_
 138 1 4  -0.019450  17.181165   0.072619   3.632305   # H_
 139 1 2  -0.602179  23.329590   0.000000  24.962178   # O_3
 140 1 3   0.483142  23.743789   0.000000  23.743789   # C_3
 141 1 2  -0.600180  24.962178   0.000000  23.329590   # O_3
 142 1 3  -0.164481  22.686776   0.000000  22.686776   # C_3
 143 1 3   0.094839  21.360803   0.000000  23.004149   # C_3
 144 1 3   0.094491  23.004149   0.000000  21.360803   # C_3
 145 1 3  -0.154406  20.387168   0.000000  22.068168   # C_3
 146 1 4   0.022508  21.116050   0.000000  23.899786   # H_
 147 1 3  -0.152743  22.068168   0.000000  20.387168   # C_3
 148 1 4   0.024878  23.899786   0.000000  21.116050   # H_
 149 1 3   0.078855  20.691093   0.000000  20.691093   # C_3
 150 1 3  -0.023900  19.652907   0.000000  19.652907   # C_3
 151 1 4   0.075914  19.496910   0.000000  22.337128   # H_
 152 1 3   0.000785  18.275832   0.000000  19.956832   # C_3
 153 1 4   0.069623  22.337128   0.000000  19.496910   # H_
 154 1 3  -0.104667  19.956832   0.000000  18.275832   # C_3
 155 1 3  -0.010776  17.339851   0.000000  18.983197   # C_3
 156 1 5  -0.198104  17.767767   0.496500  21.344935   # N_3
 157 1 3   0.037721  18.983197   0.000000  17.339851   # C_3
 158 1 4   0.031809  20.847090   0.000000  18.006872   # H_
 159 1 3  -0.150916  17.657224   0.000000  17.657224   # C_3
 160 1 3   0.474250  16.600211   0.000000  16.600211   # C_3
 161 1 4   0.015891  16.444214   0.000000  19.227950   # H_
 162 1 4  -0.005967  19.227950   0.000000  16.444214   # H_
 163 1 2  -0.676706  15.381822   0.000000  17.014410   # O_3
 164 1 2  -0.675797  17.014410   0.000000  15.381822   # O_3
 165 1 4   0.077100  17.344424   1.466908  21.216910   # H_
 166 1 3   0.100448  16.918122  26.513001  22.207758   # C_3
 167 1 3  -0.097248  16.966535  24.956798  21.974032   # C_3
 168 1 4   0.093585  17.937480  24.647763  21.538855   # H_
 169 1 3  -0.032050  15.781228  24.645074  21.066561   # C_3
 170 1 4   0.062505  16.807579  24.384720  22.936102   # H_
 171 1 3  -0.099941  14.789572  25.767713  21.309701   # C_3
 172 1 4   0.032099  15.364071  23.622488  21.119008   # H_
 173 1 4   0.071017  16.130069  24.761264  20.020576   # H_
 174 1 3   0.078381  15.462241  26.852966  22.108243   # C_3
 175 1 4   0.064957  13.925135  25.436623  21.908675   # H_
 176 1 4   0.100855  14.429166  26.197780  20.333107   # H_
 177 1 4   0.056390  15.014961  26.817195  23.134863   # H_
 178 1 4  -0.064702  15.228515   0.924416  21.684631   # H_
 179 1 4   0.073031  17.181165  26.823381  23.263695   # H_
 180 1 2  -0.608890   3.566410   0.000000  24.962178   # O_3
 181 1 3   0.496620   3.152211   0.000000  23.743789   # C_3
 182 1 2  -0.676774   1.933822   0.000000  23.329590   # O_3
 183 1 3  -0.196321   4.209224   0.000000  22.686776   # C_3
 184 1 3   0.112022   5.535197   0.000000  23.004149   # C_3
 185 1 3   0.112423   3.891851   0.000000  21.360803   # C_3
 186 1 3  -0.166974   6.508832   0.000000  22.068168   # C_3
 187 1 4   0.018202   5.779950   0.000000  23.899786   # H_
 188 1 3  -0.172657   4.827832   0.000000  20.387168   # C_3
 189 1 4  -0.016186   2.996214   0.000000  21.116050   # H_
 190 1 3   0.077650   6.204907   0.000000  20.691093   # C_3
 191 1 3  -0.003379   7.243093   0.000000  19.652907   # C_3
 192 1 4   0.082797   7.399090   0.000000  22.337128   # H_
 193 1 3  -0.057838   8.620168   0.000000  19.956832   # C_3
 194 1 4   0.067422   4.558872   0.000000  19.496910   # H_
 195 1 3  -0.115780   6.939168   0.000000  18.275832   # C_3
 196 1 3   0.023273   9.556149   0.000000  18.983197   # C_3
 197 1 5  -0.033078   9.128233  26.399500  21.344935   # N_3
 198 1 3   0.056406   7.912803   0.000000  17.339851   # C_3
 199 1 4   0.048762   6.048910   0.000000  18.006872   # H_
 200 1 3  -0.164524   9.238776   0.000000  17.657224   # C_3
 201 1 3   0.480843  10.295789   0.000000  16.600211   # C_3
 202 1 4   0.014912  10.451786   0.000000  19.227950   # H_
 203 1 4   0.004419   7.668050   0.000000  16.444214   # H_
 204 1 2  -0.674480  11.514178   0.000000  17.014410   # O_3
 205 1 2  -0.674504   9.881590   0.000000  15.381822   # O_3
 206 1 4   0.118064   9.551576  25.429092  21.216910   # H_
 207 1 3   0.013203   9.977878   0.382999  22.207758   # C_3
 208 1 3  -0.071589   9.929465   1.938933  21.974032   # C_3
 209 1 4   0.049780   8.958520   2.248237  21.538855   # H_
 210 1 3  -0.082564  11.114772   2.250926  21.066561   # C_3
 211 1 4   0.046283  10.088421   2.511280  22.936102   # H_
 212 1 3   0.015681  12.106428   1.128287  21.309701   # C_3
 213 1 4   0.042146  11.531929   3.273512  21.119008   # H_
 214 1 4   0.052360  10.765931   2.134736  20.020576   # H_
 215 1 3  -0.281113  11.433759   0.043034  22.108243   # C_3
 216 1 4   0.001513  12.970865   1.459377  21.908675   # H_
 217 1 4  -0.012472  12.466834   0.698220  20.333107   # H_
 218 1 4   0.053149  11.881039   0.078805  23.134863   # H_
 219 1 4   0.177875  11.667485  25.971584  21.684631   # H_
 220 1 4   0.007476   9.714835   0.072619  23.263695   # H_
 221 1 2  -0.687263   1.933822   3.566410   0.000000   # O_3
 222 1 3   0.512997   3.152211   3.152211   0.000000   # C_3
 223 1 2  -0.686931   3.566410   1.933822   0.000000   # O_3
 224 1 3  -0.241614   4.209224   4.209224   0.000000   # C_3
 225 1 3   0.141546   3.891851   5.535197   0.000000   # C_3
 226 1 3   0.140946   5.535197   3.891851   0.000000   # C_3
 227 1 3  -0.212602   4.827832   6.508832   0.000000   # C_3
 228 1 4  -0.032731   2.996214   5.779950   0.000000   # H_
 229 1 3  -0.209848   6.508832   4.827832   0.000000   # C_3
 230 1 4  -0.031238   5.779950   2.996214   0.000000   # H_
 231 1 3   0.106835   6.204907   6.204907   0.000000   # C_3
 232 1 3  -0.052980   7.243093   7.243093   0.000000   # C_3
 233 1 4   0.077194   4.558872   7.399090   0.000000   # H_
 234 1 3   0.015513   6.939168   8.620168   0.000000   # C_3
 235 1 4   0.070590   7.399090   4.558872   0.000000   # H_
 236 1 3  -0.082652   8.620168   6.939168   0.000000   # C_3
 237 1 3  -0.026186   7.912803   9.556149   0.000000   # C_3
 238 1 5  -0.207899   5.556176   9.197356   0.405323   # N_3
 239 1 3   0.016493   9.556149   7.912803   0.000000   # C_3
 240 1 4   0.017131   8.889128   6.048910   0.000000   # H_
 241 1 3  -0.137435   9.238776   9.238776   0.000000   # C_3
 242 1 3   0.469220  10.295789  10.295789   0.000000   # C_3
 243 1 4   0.028550   7.668050  10.451786   0.000000   # H_
 244 1 4   0.001442  10.451786   7.668050   0.000000   # H_
 245 1 2  -0.674955   9.881590  11.514178   0.000000   # O_3
 246 1 2  -0.675152  11.514178   9.881590   0.000000   # O_3
 247 1 4   0.066630   5.557252   9.607251   1.369813   # H_
 248 1 3   0.109095   4.559948   9.871101  26.393314   # C_3
 249 1 3  -0.103825   4.762475   9.589769  24.893324   # C_3
 250 1 4   0.094507   5.431916   8.724256  24.684342   # H_
 251 1 3  -0.032214   5.386731  10.860605  24.335770   # C_3
 252 1 4   0.056993   3.767861   9.392621  24.423182   # H_
 253 1 3  -0.098430   5.125033  12.045105  25.295419   # C_3
 254 1 4   0.031613   5.028207  11.113427  23.322328   # H_
 255 1 4   0.060825   6.481936  10.671795  24.287088   # H_
 256 1 3   0.069765   4.500777  11.421386  26.561414   # C_3
 257 1 4   0.052761   4.454516  12.789855  24.833884   # H_
 258 1 4   0.084366   6.120723  12.495344  25.556310   # H_
 259 1 4   0.037461   3.457212  11.774531  26.660391   # H_
 260 1 4  -0.073461   5.088992  11.739566   0.558092   # H_
 261 1 4   0.045286   3.554844   9.481647  26.699390   # H_
 262 1 2  -0.677112   1.933822  23.329590   0.000000   # O_3
 263 1 3   0.496828   3.152211  23.743789   0.000000   # C_3
 264 1 2  -0.610104   3.566410  24.962178   0.000000   # O_3
 265 1 3  -0.197310   4.209224  22.686776   0.000000   # C_3
 266 1 3   0.114933   3.891851  21.360803   0.000000   # C_3
 267 1 3   0.111305   5.535197  23.004149   0.000000   # C_3
 268 1 3  -0.176680   4.827832  20.387168   0.000000   # C_3
 269 1 4  -0.016163   2.996214  21.116050   0.000000   # H_
 270 1 3  -0.164692   6.508832  22.068168   0.000000   # C_3
 271 1 4   0.017664   5.779950  23.899786   0.000000   # H_
 272 1 3   0.077420   6.204907  20.691093   0.000000   # C_3
 273 1 3   0.000551   7.243093  19.652907   0.000000   # C_3
 274 1 4   0.074203   4.558872  19.496910   0.000000   # H_
 275 1 3  -0.063677   6.939168  18.275832   0.000000   # C_3
 276 1 4   0.079386   7.399090  22.337128   0.000000   # H_
 277 1 3  -0.119346   8.620168  19.956832   0.000000   # C_3
 278 1 3   0.030599   7.912803  17.339851   0.000000   # C_3
 279 1 5  -0.032428   5.556176  17.698644  26.490677   # N_3
 280 1 3   0.061795   9.556149  18.983197   0.000000   # C_3
 281 1 4   0.054271   8.889128  20.847090   0.000000   # H_
 282 1 3  -0.168949   9.238776  17.657224   0.000000   # C_3
 283 1 3   0.482670  10.295789  16.600211   0.000000   # C_3
 284 1 4   0.009322   7.668050  16.444214   0.000000   # H_
 285 1 4   0.001897  10.451786  19.227950   0.000000   # H_
 286 1 2  -0.676196   9.881590  15.381822   0.000000   # O_3
 287 1 2  -0.675075  11.514178  17.014410   0.000000   # O_3
 288 1 4   0.111495   5.557252  17.288749  25.526187   # H_
 289 1 3  -0.010114   4.559948  17.024899   0.502686   # C_3
 290 1 3  -0.071095   4.762475  17.306231   2.002676   # C_3
 291 1 4   0.046873   5.431916  18.171476   2.211658   # H_
 292 1 3  -0.075422   5.386731  16.035395   2.560230   # C_3
 293 1 4   0.031221   3.767861  17.503379   2.472549   # H_
 294 1 3  -0.008564   5.125033  14.850895   1.600850   # C_3
 295 1 4   0.036971   5.028207  15.782573   3.573672   # H_
 296 1 4   0.047807   6.481936  16.224205   2.608912   # H_
 297 1 3  -0.251134   4.500777  15.474614   0.334586   # C_3
 298 1 4   0.002260   4.454516  14.106145   2.061847   # H_
 299 1 4   0.002897   6.120723  14.400656   1.339690   # H_
 300 1 4   0.027352   3.457212  15.121469   0.235609   # H_
 301 1 4   0.169022   5.088992  15.156434  26.337908   # H_
 302 1 4  -0.011867   3.554844  17.414353   0.196610   # H_
 303 1 2  -0.600595  24.962178  23.329590   0.000000   # O_3
 304 1 3   0.483247  23.743789  23.743789   0.000000   # C_3
 305 1 2  -0.603208  23.329590  24.962178   0.000000   # O_3
 306 1 3  -0.165064  22.686776  22.686776   0.000000   # C_3
 307 1 3   0.094622  23.004149  21.360803   0.000000   # C_3
 308 1 3   0.095321  21.360803  23.004149   0.000000   # C_3
 309 1 3  -0.154811  22.068168  20.387168   0.000000   # C_3
 310 1 4   0.023390  23.899786  21.116050   0.000000   # H_
 311 1 3  -0.154351  20.387168  22.068168   0.000000   # C_3
 312 1 4   0.023210  21.116050  23.899786   0.000000   # H_
 313 1 3   0.080479  20.691093  20.691093   0.000000   # C_3
 314 1 3  -0.030601  19.652907  19.652907   0.000000   # C_3
 315 1 4   0.072611  22.337128  19.496910   0.000000   # H_
 316 1 3   0.010869  19.956832  18.275832   0.000000   # C_3
 317 1 4   0.070317  19.496910  22.337128   0.000000   # H_
 318 1 3  -0.095128  18.275832  19.956832   0.000000   # C_3
 319 1 3  -0.018238  18.983197  17.339851   0.000000   # C_3
 320 1 5  -0.203823  21.339824  17.698644   0.405323   # N_3
 321 1 3   0.029454  17.339851  18.983197   0.000000   # C_3
 322 1 4   0.030335  18.006872  20.847090   0.000000   # H_
 323 1 3  -0.142837  17.657224  17.657224   0.000000   # C_3
 324 1 3   0.471993  16.600211  16.600211   0.000000   # C_3
 325 1 4   0.027126  19.227950  16.444214   0.000000   # H_
 326 1 4  -0.000806  16.444214  19.227950   0.000000   # H_
 327 1 2  -0.674747  17.014410  15.381822   0.000000   # O_3
 328 1 2  -0.674991  15.381822  17.014410   0.000000   # O_3
 329 1 4   0.079947  21.338748  17.288749   1.369813   # H_
 330 1 3   0.112813  22.336052  17.024899  26.393314   # C_3
 331 1 3  -0.106072  22.133525  17.306231  24.893324   # C_3
 332 1 4   0.102885  21.464084  18.171476  24.684342   # H_
 333 1 3  -0.027158  21.509269  16.035395  24.335770   # C_3
 334 1 4   0.088524  23.128139  17.503379  24.423182   # H_
 335 1 3  -0.096270  21.770967  14.850895  25.295419   # C_3
 336 1 4   0.045021  21.867793  15.782573  23.322328   # H_
 337 1 4   0.061040  20.414064  16.224205  24.287088   # H_
 338 1 3   0.065869  22.395223  15.474614  26.561414   # C_3
 339 1 4   0.070865  22.441484  14.106145  24.833884   # H_
 340 1 4   0.084616  20.775277  14.400656  25.556310   # H_
 341 1 4   0.070829  23.438788  15.121469  26.660391   # H_
 342 1 4  -0.062995  21.807008  15.156434   0.558092   # H_
 343 1 4   0.074401  23.341156  17.414353  26.699390   # H_
 344 1 2  -0.606741  24.962178   3.566410   0.000000   # O_3
 345 1 3   0.495755  23.743789   3.152211   0.000000   # C_3
 346 1 2  -0.676531  23.329590   1.933822   0.000000   # O_3
 347 1 3  -0.193993  22.686776   4.209224   0.000000   # C_3
 348 1 3   0.110105  23.004149   5.535197   0.000000   # C_3
 349 1 3   0.110254  21.360803   3.891851   0.000000   # C_3
 350 1 3  -0.164101  22.068168   6.508832   0.000000   # C_3
 351 1 4   0.020621  23.899786   5.779950   0.000000   # H_
 352 1 3  -0.170154  20.387168   4.827832   0.000000   # C_3
 353 1 4  -0.015516  21.116050   2.996214   0.000000   # H_
 354 1 3   0.075638  20.691093   6.204907   0.000000   # C_3
 355 1 3  -0.000856  19.652907   7.243093   0.000000   # C_3
 356 1 4   0.082113  22.337128   7.399090   0.000000   # H_
 357 1 3  -0.060928  19.956832   8.620168   0.000000   # C_3
 358 1 4   0.066054  19.496910   4.558872   0.000000   # H_
 359 1 3  -0.116982  18.275832   6.939168   0.000000   # C_3
 360 1 3   0.028692  18.983197   9.556149   0.000000   # C_3
 361 1 5  -0.032275  21.339824   9.197356  26.490677   # N_3
 362 1 3   0.058571  17.339851   7.912803   0.000000   # C_3
 363 1 4   0.047676  18.006872   6.048910   0.000000   # H_
 364 1 3  -0.166979  17.657224   9.238776   0.000000   # C_3
 365 1 3   0.482064  16.600211  10.295789   0.000000   # C_3
 366 1 4   0.010586  19.227950  10.451786   0.000000   # H_
 367 1 4   0.001814  16.444214   7.668050   0.000000   # H_
 368 1 2  -0.675660  17.014410  11.514178   0.000000   # O_3
 369 1 2  -0.675178  15.381822   9.881590   0.000000   # O_3
 370 1 4   0.120994  21.338748   9.607251  25.526187   # H_
 371 1 3  -0.005153  22.336052   9.871101   0.502686   # C_3
 372 1 3  -0.073158  22.133525   9.589769   2.002676   # C_3
 373 1 4   0.052947  21.464084   8.724256   2.211658   # H_
 374 1 3  -0.069879  21.509269  10.860605   2.560230   # C_3
 375 1 4   0.061622  23.128139   9.392621   2.472549   # H_
 376 1 3  -0.007799  21.770967  12.045105   1.600850   # C_3
 377 1 4   0.049678  21.867793  11.113427   3.573672   # H_
 378 1 4   0.047546  20.414064  10.671795   2.608912   # H_
 379 1 3  -0.249625  22.395223  11.421386   0.334586   # C_3
 380 1 4   0.021718  22.441484  12.789855   2.061847   # H_
 381 1 4   0.004396  20.775277  12.495344   1.339690   # H_
 382 1 4   0.060991  23.438788  11.774531   0.235609   # H_
 383 1 4   0.175096  21.807008  11.739566  26.337908   # H_
 384 1 4   0.017515  23.341156   9.481647   0.196610   # H_
 385 1 2  -0.688773   0.000000   1.933822   3.566410   # O_3
 386 1 3   0.514419   0.000000   3.152211   3.152211   # C_3
 387 1 2  -0.688504   0.000000   3.566410   1.933822   # O_3
 388 1 3  -0.246265   0.000000   4.209224   4.209224   # C_3
 389 1 3   0.147653   0.000000   3.891851   5.535197   # C_3
 390 1 3   0.147238   0.000000   5.535197   3.891851   # C_3
 391 1 3  -0.218920   0.000000   4.827832   6.508832   # C_3
 392 1 4  -0.034837   0.000000   2.996214   5.779950   # H_
 393 1 3  -0.215520   0.000000   6.508832   4.827832   # C_3
 394 1 4  -0.032486   0.000000   5.779950   2.996214   # H_
 395 1 3   0.113391   0.000000   6.204907   6.204907   # C_3
 396 1 3  -0.053139   0.000000   7.243093   7.243093   # C_3
 397 1 4   0.083180   0.000000   4.558872   7.399090   # H_
 398 1 3   0.014295   0.000000   6.939168   8.620168   # C_3
 399 1 4   0.078219   0.000000   7.399090   4.558872   # H_
 400 1 3  -0.076701   0.000000   8.620168   6.939168   # C_3
 401 1 3  -0.030590   0.000000   7.912803   9.556149   # C_3
 402 1 5  -0.209349   0.438136   5.559134   9.123123   # N_3
 403 1 3   0.018368   0.000000   9.556149   7.912803   # C_3
 404 1 4   0.029712   0.000000   8.889128   6.048910   # H_
 405 1 3  -0.134995   0.000000   9.238776   9.238776   # C_3
 406 1 3   0.468013   0.000000  10.295789  10.295789   # C_3
 407 1 4   0.025029   0.000000   7.668050  10.451786   # H_
 408 1 4   0.016437   0.000000  10.451786   7.668050   # H_
 409 1 2  -0.676792   0.000000   9.881590  11.514178   # O_3
 410 1 2  -0.671685   0.000000  11.514178   9.881590   # O_3
 411 1 4   0.068114   1.339152   5.663491   9.633878   # H_
 412 1 3   0.112553  26.290033   4.855535   9.957168   # C_3
 413 1 3  -0.102137  24.806450   5.246065   9.761903   # C_3
 414 1 4   0.094326  24.577296   5.732613   8.796606   # H_
 415 1 3  -0.027311  24.443892   6.082261  10.939948   # C_3
 416 1 4   0.050720  24.179504   4.321111   9.866798   # H_
 417 1 3  -0.107106  25.336570   5.635519  12.071732   # C_3
 418 1 4   0.032088  23.357562   5.968491  11.187391   # H_
 419 1 4   0.074583  24.631626   7.135240  10.700843   # H_
 420 1 3   0.074083  26.547428   5.008304  11.447207   # C_3
 421 1 4   0.054432  24.838187   4.944023  12.741980   # H_
 422 1 4   0.090274  25.610909   6.524701  12.658064   # H_
 423 1 4   0.041724  26.740003   4.034938  11.919769   # H_
 424 1 4  -0.071969   0.527968   5.679359  11.654575   # H_
 425 1 4   0.038276  26.362652   3.757909   9.723711   # H_
 426 1 2  -0.678373   0.000000   1.933822  23.329590   # O_3
 427 1 3   0.496348   0.000000   3.152211  23.743789   # C_3
 428 1 2  -0.610743   0.000000   3.566410  24.962178   # O_3
 429 1 3  -0.197274   0.000000   4.209224  22.686776   # C_3
 430 1 3   0.113536   0.000000   3.891851  21.360803   # C_3
 431 1 3   0.111088   0.000000   5.535197  23.004149   # C_3
 432 1 3  -0.175574   0.000000   4.827832  20.387168   # C_3
 433 1 4  -0.017123   0.000000   2.996214  21.116050   # H_
 434 1 3  -0.164418   0.000000   6.508832  22.068168   # C_3
 435 1 4   0.018066   0.000000   5.779950  23.899786   # H_
 436 1 3   0.076732   0.000000   6.204907  20.691093   # C_3
 437 1 3   0.002013   0.000000   7.243093  19.652907   # C_3
 438 1 4   0.071411   0.000000   4.558872  19.496910   # H_
 439 1 3  -0.067775   0.000000   6.939168  18.275832   # C_3
 440 1 4   0.081098   0.000000   7.399090  22.337128   # H_
 441 1 3  -0.117679   0.000000   8.620168  19.956832   # C_3
 442 1 3   0.031533   0.000000   7.912803  17.339851   # C_3
 443 1 5  -0.031997  26.457864   5.559134  17.772877   # N_3
 444 1 3   0.062690   0.000000   9.556149  18.983197   # C_3
 445 1 4   0.057691   0.000000   8.889128  20.847090   # H_
 446 1 3  -0.169039   0.000000   9.238776  17.657224   # C_3
 447 1 3   0.482010   0.000000  10.295789  16.600211   # C_3
 448 1 4   0.004134   0.000000   7.668050  16.444214   # H_
 449 1 4   0.008205   0.000000  10.451786  19.227950   # H_
 450 1 2  -0.677857   0.000000   9.881590  15.381822   # O_3
 451 1 2  -0.672306   0.000000  11.514178  17.014410   # O_3
 452 1 4   0.112686  25.557117   5.663491  17.262122   # H_
 453 1 3  -0.004152   0.605967   4.855535  16.938832   # C_3
 454 1 3  -0.068795   2.089550   5.246065  17.134097   # C_3
 455 1 4   0.046997   2.318704   5.732613  18.099394   # H_
 456 1 3  -0.081352   2.452108   6.082261  15.956052   # C_3
 457 1 4   0.034723   2.716227   4.321111  17.029202   # H_
 458 1 3   0.005503   1.559430   5.635519  14.824268   # C_3
 459 1 4   0.043086   3.538438   5.968491  15.708609   # H_
 460 1 4   0.054045   2.264374   7.135240  16.195157   # H_
 461 1 3  -0.259952   0.348572   5.008304  15.448793   # C_3
 462 1 4   0.003896   2.057813   4.944023  14.154020   # H_
 463 1 4  -0.001080   1.285091   6.524701  14.237936   # H_
 464 1 4   0.025163   0.155997   4.034938  14.976231   # H_
 465 1 4   0.174997  26.368032   5.679359  15.241425   # H_
 466 1 4  -0.009909   0.533348   3.757909  17.172289   # H_
 467 1 2  -0.605402   0.000000  24.962178  23.329590   # O_3
 468 1 3   0.485658   0.000000  23.743789  23.743789   # C_3
 469 1 2  -0.604506   0.000000  23.329590  24.962178   # O_3
 470 1 3  -0.172583   0.000000  22.686776  22.686776   # C_3
 471 1 3   0.103656   0.000000  23.004149  21.360803   # C_3
 472 1 3   0.104547   0.000000  21.360803  23.004149   # C_3
 473 1 3  -0.164693   0.000000  22.068168  20.387168   # C_3
 474 1 4   0.018880   0.000000  23.899786  21.116050   # H_
 475 1 3  -0.162825   0.000000  20.387168  22.068168   # C_3
 476 1 4   0.021573   0.000000  21.116050  23.899786   # H_
 477 1 3   0.089522   0.000000  20.691093  20.691093   # C_3
 478 1 3  -0.030958   0.000000  19.652907  19.652907   # C_3
 479 1 4   0.080670   0.000000  22.337128  19.496910   # H_
 480 1 3   0.009421   0.000000  19.956832  18.275832   # C_3
 481 1 4   0.081132   0.000000  19.496910  22.337128   # H_
 482 1 3  -0.088058   0.000000  18.275832  19.956832   # C_3
 483 1 3  -0.022636   0.000000  18.983197  17.339851   # C_3
 484 1 5  -0.203030   0.438136  21.336866  17.772877   # N_3
 485 1 3   0.031575   0.000000  17.339851  18.983197   # C_3
 486 1 4   0.047021   0.000000  18.006872  20.847090   # H_
 487 1 3  -0.139609   0.000000  17.657224  17.657224   # C_3
 488 1 3   0.470618   0.000000  16.600211  16.600211   # C_3