 (written by mofun)

1016 atoms
0 bonds
0 angles
0 dihedrals
0 impropers

5 atom types
   0.000000  26.896000 xlo xhi
   0.000000  26.896000 ylo yhi
   0.000000  26.896000 zlo zhi

Masses

 1 91.2240   # Zr3+4
 2 15.9994   # O_3
 3 12.0107   # C_3
 4 1.0079   # H_
 5 14.0067   # N_3

Pair Coeffs

 1   0.069000   2.783168 # Zr3+4
 2   0.060000   3.118146 # O_3
 3   0.105000   3.430851 # C_3
 4   0.044000   2.571134 # H_
 5   0.069000   3.260689 # N_3

Atoms

 1 1 1   3.187900   2.475508   0.000000   0.000000   # Zr3+4
 2 1 1   3.187210  24.420492   0.000000   0.000000   # Zr3+4
 3 1 1   3.187440   0.000000   2.475508   0.000000   # Zr3+4
 4 1 1   3.186800   0.000000  24.420492   0.000000   # Zr3+4
 5 1 1   3.189010   0.000000   0.000000   2.475508   # Zr3+4
 6 1 1   3.188210   0.000000   0.000000  24.420492   # Zr3+4
 7 1 1   3.215100   2.475508  13.448000  13.448000   # Zr3+4
 8 1 1   3.213940  24.420492  13.448000  13.448000   # Zr3+4
 9 1 1   3.201420   0.000000  15.923508  13.448000   # Zr3+4
 10 1 1   3.201380   0.000000  10.972492  13.448000   # Zr3+4
 11 1 1   3.201530   0.000000  13.448000  15.923508   # Zr3+4
 12 1 1   3.201440   0.000000  13.448000  10.972492   # Zr3+4
 13 1 1   3.201770  15.923508   0.000000  13.448000   # Zr3+4
 14 1 1   3.201720  10.972492   0.000000  13.448000   # Zr3+4
 15 1 1   3.214910  13.448000   2.475508  13.448000   # Zr3+4
 16 1 1   3.213800  13.448000  24.420492  13.448000   # Zr3+4
 17 1 1   3.201940  13.448000   0.000000  15.923508   # Zr3+4
 18 1 1   3.201900  13.448000   0.000000  10.972492   # Zr3+4
 19 1 1   3.200150  15.923508  13.448000   0.000000   # Zr3+4
 20 1 1   3.200080  10.972492  13.448000   0.000000   # Zr3+4
 21 1 1   3.200150  13.448000  15.923508   0.000000   # Zr3+4
 22 1 1   3.200100  13.448000  10.972492   0.000000   # Zr3+4
 23 1 1   3.214730  13.448000  13.448000   2.475508   # Zr3+4
 24 1 1   3.213480  13.448000  13.448000  24.420492   # Zr3+4
 25 1 2  -1.329200   1.221078   1.221078   1.221078   # O_3
 26 1 2  -1.145540  25.674922  25.674922   1.221078   # O_3
 27 1 2  -1.134110  25.674922   1.221078  25.674922   # O_3
 28 1 2  -1.137730   1.221078  25.674922  25.674922   # O_3
 29 1 2  -1.226640   1.221078   1.221078  25.674922   # O_3
 30 1 2  -1.050680  25.674922  25.674922  25.674922   # O_3
 31 1 2  -1.237900   1.221078  25.674922   1.221078   # O_3
 32 1 2  -1.234340  25.674922   1.221078   1.221078   # O_3
 33 1 2  -1.273370   1.221078  14.669078  14.669078   # O_3
 34 1 2  -1.178770  25.674922  12.226922  14.669078   # O_3
 35 1 2  -1.178930  25.674922  14.669078  12.226922   # O_3
 36 1 2  -1.273640   1.221078  12.226922  12.226922   # O_3
 37 1 2  -1.273800   1.221078  14.669078  12.226922   # O_3
 38 1 2  -1.179080  25.674922  12.226922  12.226922   # O_3
 39 1 2  -1.273800   1.221078  12.226922  14.669078   # O_3
 40 1 2  -1.179640  25.674922  14.669078  14.669078   # O_3
 41 1 2  -1.272250  14.669078   1.221078  14.669078   # O_3
 42 1 2  -1.181320  12.226922  25.674922  14.669078   # O_3
 43 1 2  -1.272420  12.226922   1.221078  12.226922   # O_3
 44 1 2  -1.181360  14.669078  25.674922  12.226922   # O_3
 45 1 2  -1.272750  14.669078   1.221078  12.226922   # O_3
 46 1 2  -1.181730  12.226922  25.674922  12.226922   # O_3
 47 1 2  -1.182330  14.669078  25.674922  14.669078   # O_3
 48 1 2  -1.272780  12.226922   1.221078  14.669078   # O_3
 49 1 2  -1.275430  14.669078  14.669078   1.221078   # O_3
 50 1 2  -1.275700  12.226922  12.226922   1.221078   # O_3
 51 1 2  -1.172870  12.226922  14.669078  25.674922   # O_3
 52 1 2  -1.172750  14.669078  12.226922  25.674922   # O_3
 53 1 2  -1.174550  14.669078  14.669078  25.674922   # O_3
 54 1 2  -1.173960  12.226922  12.226922  25.674922   # O_3
 55 1 2  -1.276110  14.669078  12.226922   1.221078   # O_3
 56 1 2  -1.276110  12.226922  14.669078   1.221078   # O_3
 57 1 2  -0.685499   3.566410   0.000000   1.933822   # O_3
 58 1 3   0.515432   3.152211   0.000000   3.152211   # C_3
 59 1 2  -0.685125   1.933822   0.000000   3.566410   # O_3
 60 1 3  -0.247107   4.209224   0.000000   4.209224   # C_3
 61 1 3   0.151659   5.535197   0.000000   3.891851   # C_3
 62 1 3   0.147583   3.891851   0.000000   5.535197   # C_3
 63 1 3  -0.222028   6.508832   0.000000   4.827832   # C_3
 64 1 4  -0.033656   5.779950   0.000000   2.996214   # H_
 65 1 3  -0.218641   4.827832   0.000000   6.508832   # C_3
 66 1 4  -0.034052   2.996214   0.000000   5.779950   # H_
 67 1 3   0.116264   6.204907   0.000000   6.204907   # C_3
 68 1 3  -0.055683   7.243093   0.000000   7.243093   # C_3
 69 1 4   0.092931   7.399090   0.000000   4.558872   # H_
 70 1 3   0.020161   8.620168   0.000000   6.939168   # C_3
 71 1 4   0.072377   4.558872   0.000000   7.399090   # H_
 72 1 3  -0.074214   6.939168   0.000000   8.620168   # C_3
 73 1 3  -0.030409   9.556149   0.000000   7.912803   # C_3
 74 1 5  -0.215569   9.104296   0.564816   5.606471   # N_3
 75 1 3   0.013376   7.912803   0.000000   9.556149   # C_3
 76 1 4   0.019224   6.048910   0.000000   8.889128   # H_
 77 1 3  -0.129836   9.238776   0.000000   9.238776   # C_3
 78 1 3   0.467944  10.295789   0.000000  10.295789   # C_3
 79 1 4   0.028176  10.451786   0.000000   7.668050   # H_
 80 1 4   0.014144   7.668050   0.000000  10.451786   # H_
 81 1 2  -0.668600  11.514178   0.000000   9.881590   # O_3
 82 1 2  -0.669773   9.881590   0.000000  11.514178   # O_3
 83 1 4   0.080725   9.497247   1.524196   5.752248   # H_
 84 1 3   0.245182  10.046194  26.617626   4.822453   # C_3
 85 1 3  -0.381648  10.176640   0.307959   3.409875   # C_3
 86 1 3   0.042591  11.001002   1.611339   3.357428   # C_3
 87 1 4   0.007362  10.640327   2.472818   4.047579   # H_
 88 1 3  -0.172269  10.934569   2.169700   1.891058   # C_3
 89 1 4  -0.025264  12.051022   1.309835   3.596533   # H_
 90 1 4  -0.000442   9.715642  25.565724   4.775654   # H_
 91 1 4   0.027875  11.044304  26.655281   5.299588   # H_
 92 1 4   0.068490   9.138454   0.509948   2.967436   # H_
 93 1 4   0.166652  10.696270  26.410258   2.796108   # H_
 94 1 4   0.031194  11.596479   3.039517   1.736675   # H_
 95 1 4   0.038781   9.892887   2.516928   1.745012   # H_
 96 1 4  -0.008298  11.194653   1.406123   1.097088   # H_
 97 1 2  -0.675846  23.329590   0.000000   1.933822   # O_3
 98 1 3   0.495787  23.743789   0.000000   3.152211   # C_3
 99 1 2  -0.610178  24.962178   0.000000   3.566410   # O_3
 100 1 3  -0.196040  22.686776   0.000000   4.209224   # C_3
 101 1 3   0.109847  21.360803   0.000000   3.891851   # C_3
 102 1 3   0.104955  23.004149   0.000000   5.535197   # C_3
 103 1 3  -0.175089  20.387168   0.000000   4.827832   # C_3
 104 1 4  -0.018794  21.116050   0.000000   2.996214   # H_
 105 1 3  -0.164221  22.068168   0.000000   6.508832   # C_3
 106 1 4   0.013152  23.899786   0.000000   5.779950   # H_
 107 1 3   0.073871  20.691093   0.000000   6.204907   # C_3
 108 1 3  -0.006201  19.652907   0.000000   7.243093   # C_3
 109 1 4   0.066137  19.496910   0.000000   4.558872   # H_
 110 1 3  -0.057628  18.275832   0.000000   6.939168   # C_3
 111 1 4   0.066205  22.337128   0.000000   7.399090   # H_
 112 1 3  -0.111374  19.956832   0.000000   8.620168   # C_3
 113 1 3   0.023458  17.339851   0.000000   7.912803   # C_3
 114 1 5  -0.012878  17.791704  26.331184   5.606471   # N_3
 115 1 3   0.052654  18.983197   0.000000   9.556149   # C_3
 116 1 4   0.041904  20.847090   0.000000   8.889128   # H_
 117 1 3  -0.161364  17.657224   0.000000   9.238776   # C_3
 118 1 3   0.480026  16.600211   0.000000  10.295789   # C_3
 119 1 4   0.017148  16.444214   0.000000   7.668050   # H_
 120 1 4   0.005217  19.227950   0.000000  10.451786   # H_
 121 1 2  -0.670364  15.381822   0.000000   9.881590   # O_3
 122 1 2  -0.671075  17.014410   0.000000  11.514178   # O_3
 123 1 4   0.101859  17.398753  25.371804   5.752248   # H_
 124 1 3  -0.283842  16.849806   0.278374   4.822453   # C_3
 125 1 3   0.232240  16.719360  26.588041   3.409875   # C_3
 126 1 3  -0.121524  15.894998  25.284661   3.357428   # C_3
 127 1 4   0.062473  16.255673  24.423182   4.047579   # H_
 128 1 3  -0.108560  15.961431  24.726300   1.891058   # C_3
 129 1 4   0.077107  14.844978  25.586165   3.596533   # H_
 130 1 4   0.076426  17.180089   1.330276   4.775654   # H_
 131 1 4   0.049513  15.851696   0.240719   5.299588   # H_
 132 1 4   0.020049  17.757277  26.386052   2.967436   # H_
 133 1 4  -0.120540  16.199730   0.485742   2.796108   # H_
 134 1 4   0.029857  15.299521  23.856483   1.736675   # H_
 135 1 4   0.045042  17.003113  24.379072   1.745012   # H_
 136 1 4   0.037513  15.701347  25.489877   1.097088   # H_
 137 1 2  -0.598384  23.329590   0.000000  24.962178   # O_3
 138 1 3   0.484440  23.743789   0.000000  23.743789   # C_3
 139 1 2  -0.603725  24.962178   0.000000  23.329590   # O_3
 140 1 3  -0.170637  22.686776   0.000000  22.686776   # C_3
 141 1 3   0.101121  21.360803   0.000000  23.004149   # C_3
 142 1 3   0.097147  23.004149   0.000000  21.360803   # C_3
 143 1 3  -0.164605  20.387168   0.000000  22.068168   # C_3
 144 1 4   0.020867  21.116050   0.000000  23.899786   # H_
 145 1 3  -0.163521  22.068168   0.000000  20.387168   # C_3
 146 1 4   0.016564  23.899786   0.000000  21.116050   # H_
 147 1 3   0.086104  20.691093   0.000000  20.691093   # C_3
 148 1 3  -0.036116  19.652907   0.000000  19.652907   # C_3
 149 1 4   0.084453  19.496910   0.000000  22.337128   # H_
 150 1 3   0.015015  18.275832   0.000000  19.956832   # C_3
 151 1 4   0.063153  22.337128   0.000000  19.496910   # H_
 152 1 3  -0.085681  19.956832   0.000000  18.275832   # C_3
 153 1 3  -0.024087  17.339851   0.000000  18.983197   # C_3
 154 1 5  -0.211874  17.791704   0.564816  21.289529   # N_3
 155 1 3   0.023128  18.983197   0.000000  17.339851   # C_3
 156 1 4   0.027184  20.847090   0.000000  18.006872   # H_
 157 1 3  -0.134588  17.657224   0.000000  17.657224   # C_3
 158 1 3   0.469944  16.600211   0.000000  16.600211   # C_3
 159 1 4   0.027101  16.444214   0.000000  19.227950   # H_
 160 1 4   0.012476  19.227950   0.000000  16.444214   # H_
 161 1 2  -0.668467  15.381822   0.000000  17.014410   # O_3
 162 1 2  -0.669576  17.014410   0.000000  15.381822   # O_3
 163 1 4   0.086288  17.398753   1.524196  21.143752   # H_
 164 1 3   0.245256  16.849806  26.617626  22.073278   # C_3
 165 1 3  -0.386138  16.719360   0.307959  23.486394   # C_3
 166 1 3   0.064323  15.894998   1.611339  23.538572   # C_3
 167 1 4   0.013385  16.255673   2.472818  22.848421   # H_
 168 1 3  -0.202865  15.961431   2.169700  25.004673   # C_3
 169 1 4  -0.016574  14.844978   1.309835  23.299467   # H_
 170 1 4   0.006586  17.180089  25.565724  22.120077   # H_
 171 1 4   0.029045  15.851696  26.655281  21.596412   # H_
 172 1 4   0.098916  17.757277   0.509948  23.928564   # H_
 173 1 4   0.199134  16.199730  26.410258  24.099892   # H_
 174 1 4   0.090686  15.299521   3.039517  25.159325   # H_
 175 1 4   0.098184  17.003113   2.516928  25.150988   # H_
 176 1 4   0.074257  15.701347   1.406123  25.798912   # H_
 177 1 2  -0.604479   3.566410   0.000000  24.962178   # O_3
 178 1 3   0.494526   3.152211   0.000000  23.743789   # C_3
 179 1 2  -0.674501   1.933822   0.000000  23.329590   # O_3
 180 1 3  -0.192353   4.209224   0.000000  22.686776   # C_3
 181 1 3   0.104290   5.535197   0.000000  23.004149   # C_3
 182 1 3   0.106248   3.891851   0.000000  21.360803   # C_3
 183 1 3  -0.163030   6.508832   0.000000  22.068168   # C_3
 184 1 4   0.016511   5.779950   0.000000  23.899786   # H_
 185 1 3  -0.169344   4.827832   0.000000  20.387168   # C_3
 186 1 4  -0.016433   2.996214   0.000000  21.116050   # H_
 187 1 3   0.072779   6.204907   0.000000  20.691093   # C_3
 188 1 3  -0.005871   7.243093   0.000000  19.652907   # C_3
 189 1 4   0.071499   7.399090   0.000000  22.337128   # H_
 190 1 3  -0.056002   8.620168   0.000000  19.956832   # C_3
 191 1 4   0.060334   4.558872   0.000000  19.496910   # H_
 192 1 3  -0.111047   6.939168   0.000000  18.275832   # C_3
 193 1 3   0.022542   9.556149   0.000000  18.983197   # C_3
 194 1 5  -0.013703   9.104296  26.331184  21.289529   # N_3
 195 1 3   0.052102   7.912803   0.000000  17.339851   # C_3
 196 1 4   0.039809   6.048910   0.000000  18.006872   # H_
 197 1 3  -0.160766   9.238776   0.000000  17.657224   # C_3
 198 1 3   0.479877  10.295789   0.000000  16.600211   # C_3
 199 1 4   0.018018  10.451786   0.000000  19.227950   # H_
 200 1 4   0.004224   7.668050   0.000000  16.444214   # H_
 201 1 2  -0.669968  11.514178   0.000000  17.014410   # O_3
 202 1 2  -0.671429   9.881590   0.000000  15.381822   # O_3
 203 1 4   0.105184   9.497247  25.371804  21.143752   # H_
 204 1 3  -0.273865  10.046194   0.278374  22.073278   # C_3
 205 1 3   0.215820  10.176640  26.588041  23.486394   # C_3
 206 1 3  -0.096785  11.001002  25.284661  23.538572   # C_3
 207 1 4   0.065682  10.640327  24.423182  22.848421   # H_
 208 1 3  -0.139879  10.934569  24.726300  25.004673   # C_3
 209 1 4   0.083773  12.051022  25.586165  23.299467   # H_
 210 1 4   0.081829   9.715642   1.330276  22.120077   # H_
 211 1 4   0.050203  11.044304   0.240719  21.596412   # H_
 212 1 4   0.050512   9.138454  26.386052  23.928564   # H_
 213 1 4  -0.081643  10.696270   0.485742  24.099892   # H_
 214 1 4   0.088131  11.596479  23.856483  25.159325   # H_
 215 1 4   0.102398   9.892887  24.379072  25.150988   # H_
 216 1 4   0.118673  11.194653  25.489877  25.798912   # H_
 217 1 2  -0.687940   1.933822   3.566410   0.000000   # O_3
 218 1 3   0.507786   3.152211   3.152211   0.000000   # C_3
 219 1 2  -0.688217   3.566410   1.933822   0.000000   # O_3
 220 1 3  -0.230105   4.209224   4.209224   0.000000   # C_3
 221 1 3   0.123333   3.891851   5.535197   0.000000   # C_3
 222 1 3   0.123698   5.535197   3.891851   0.000000   # C_3
 223 1 3  -0.190902   4.827832   6.508832   0.000000   # C_3
 224 1 4  -0.025902   2.996214   5.779950   0.000000   # H_
 225 1 3  -0.189482   6.508832   4.827832   0.000000   # C_3
 226 1 4  -0.026086   5.779950   2.996214   0.000000   # H_
 227 1 3   0.074937   6.204907   6.204907   0.000000   # C_3
 228 1 3  -0.003955   7.243093   7.243093   0.000000   # C_3
 229 1 4   0.065738   4.558872   7.399090   0.000000   # H_
 230 1 3  -0.083806   6.939168   8.620168   0.000000   # C_3
 231 1 4   0.065794   7.399090   4.558872   0.000000   # H_
 232 1 3  -0.124429   8.620168   6.939168   0.000000   # C_3
 233 1 3   0.034471   7.912803   9.556149   0.000000   # C_3
 234 1 5   0.004095   5.570431   9.164812  26.508160   # N_3
 235 1 3   0.059505   9.556149   7.912803   0.000000   # C_3
 236 1 4   0.042241   8.889128   6.048910   0.000000   # H_
 237 1 3  -0.176596   9.238776   9.238776   0.000000   # C_3
 238 1 3   0.482247  10.295789  10.295789   0.000000   # C_3
 239 1 4   0.000123   7.668050  10.451786   0.000000   # H_
 240 1 4  -0.002540  10.451786   7.668050   0.000000   # H_
 241 1 2  -0.679800   9.881590  11.514178   0.000000   # O_3
 242 1 2  -0.678608  11.514178   9.881590   0.000000   # O_3
 243 1 4  -0.030222   5.234768   9.794447   0.380847   # H_
 244 1 3  -0.003203   5.691732   9.931617  25.255882   # C_3
 245 1 3  -0.091637   4.633105   9.495095  24.287626   # C_3
 246 1 3  -0.022446   4.931651  10.106172  22.920502   # C_3
 247 1 4   0.031980   4.947250  11.208908  22.995004   # H_
 248 1 3  -0.159120   3.867107   9.687132  21.949019   # C_3
 249 1 4   0.036699   5.915506   9.749800  22.527014   # H_
 250 1 4   0.071279   6.672091   9.758138  24.734906   # H_
 251 1 4   0.065866   5.579037  11.015526  25.462981   # H_
 252 1 4   0.066342   3.653553   9.866529  24.651529   # H_
 253 1 4   0.078981   4.598947   8.388862  24.222538   # H_
 254 1 4   0.059319   2.868458  10.042966  22.285488   # H_
 255 1 4   0.066125   3.857693   8.575252  21.872903   # H_
 256 1 4   0.062020   4.095723  10.120696  20.953329   # H_
 257 1 2  -0.680822   1.933822  23.329590   0.000000   # O_3
 258 1 3   0.501139   3.152211  23.743789   0.000000   # C_3
 259 1 2  -0.618737   3.566410  24.962178   0.000000   # O_3
 260 1 3  -0.214787   4.209224  22.686776   0.000000   # C_3
 261 1 3   0.132643   3.891851  21.360803   0.000000   # C_3
 262 1 3   0.127623   5.535197  23.004149   0.000000   # C_3
 263 1 3  -0.201554   4.827832  20.387168   0.000000   # C_3
 264 1 4  -0.024427   2.996214  21.116050   0.000000   # H_
 265 1 3  -0.191261   6.508832  22.068168   0.000000   # C_3
 266 1 4   0.004075   5.779950  23.899786   0.000000   # H_
 267 1 3   0.108036   6.204907  20.691093   0.000000   # C_3
 268 1 3  -0.046866   7.243093  19.652907   0.000000   # C_3
 269 1 4   0.087112   4.558872  19.496910   0.000000   # H_
 270 1 3   0.026575   6.939168  18.275832   0.000000   # C_3
 271 1 4   0.078978   7.399090  22.337128   0.000000   # H_
 272 1 3  -0.077007   8.620168  19.956832   0.000000   # C_3
 273 1 3  -0.031591   7.912803  17.339851   0.000000   # C_3
 274 1 5  -0.228054   5.570431  17.731188   0.387840   # N_3
 275 1 3   0.019190   9.556149  18.983197   0.000000   # C_3
 276 1 4   0.031734   8.889128  20.847090   0.000000   # H_
 277 1 3  -0.131100   9.238776  17.657224   0.000000   # C_3
 278 1 3   0.468607  10.295789  16.600211   0.000000   # C_3
 279 1 4   0.031109   7.668050  16.444214   0.000000   # H_
 280 1 4   0.014918  10.451786  19.227950   0.000000   # H_
 281 1 2  -0.674442   9.881590  15.381822   0.000000   # O_3
 282 1 2  -0.673696  11.514178  17.014410   0.000000   # O_3
 283 1 4   0.199206   5.234768  17.101284  26.515153   # H_
 284 1 3  -0.007648   5.691732  16.964383   1.640118   # C_3
 285 1 3  -0.094391   4.633105  17.400905   2.608374   # C_3
 286 1 3  -0.026041   4.931651  16.789828   3.975498   # C_3
 287 1 4   0.020154   4.947250  15.687092   3.900996   # H_
 288 1 3  -0.155796   3.867107  17.208868   4.946981   # C_3
 289 1 4   0.031978   5.915506  17.146200   4.368986   # H_
 290 1 4   0.036329   6.672091  17.137862   2.161094   # H_
 291 1 4  -0.003160   5.579037  15.880474   1.433019   # H_
 292 1 4   0.022116   3.653553  17.029471   2.244471   # H_
 293 1 4   0.051049   4.598947  18.507138   2.673462   # H_
 294 1 4   0.043244   2.868458  16.853034   4.610512   # H_
 295 1 4   0.059068   3.857693  18.320479   5.023097   # H_
 296 1 4   0.058774   4.095723  16.775304   5.942671   # H_
 297 1 2  -0.607176  24.962178  23.329590   0.000000   # O_3
 298 1 3   0.479903  23.743789  23.743789   0.000000   # C_3
 299 1 2  -0.610434  23.329590  24.962178   0.000000   # O_3
 300 1 3  -0.161745  22.686776  22.686776   0.000000   # C_3
 301 1 3   0.082350  23.004149  21.360803   0.000000   # C_3
 302 1 3   0.081610  21.360803  23.004149   0.000000   # C_3
 303 1 3  -0.142640  22.068168  20.387168   0.000000   # C_3
 304 1 4   0.025689  23.899786  21.116050   0.000000   # H_
 305 1 3  -0.141805  20.387168  22.068168   0.000000   # C_3
 306 1 4   0.021951  21.116050  23.899786   0.000000   # H_
 307 1 3   0.052737  20.691093  20.691093   0.000000   # C_3
 308 1 3   0.011727  19.652907  19.652907   0.000000   # C_3
 309 1 4   0.066699  22.337128  19.496910   0.000000   # H_
 310 1 3  -0.081900  19.956832  18.275832   0.000000   # C_3
 311 1 4   0.062604  19.496910  22.337128   0.000000   # H_
 312 1 3  -0.132330  18.275832  19.956832   0.000000   # C_3
 313 1 3   0.036763  18.983197  17.339851   0.000000   # C_3
 314 1 5   0.003307  21.325569  17.731188  26.508160   # N_3
 315 1 3   0.066697  17.339851  18.983197   0.000000   # C_3
 316 1 4   0.050950  18.006872  20.847090   0.000000   # H_
 317 1 3  -0.177983  17.657224  17.657224   0.000000   # C_3
 318 1 3   0.483267  16.600211  16.600211   0.000000   # C_3
 319 1 4   0.002800  19.227950  16.444214   0.000000   # H_
 320 1 4  -0.002934  16.444214  19.227950   0.000000   # H_
 321 1 2  -0.678472  17.014410  15.381822   0.000000   # O_3
 322 1 2  -0.678034  15.381822  17.014410   0.000000   # O_3
 323 1 4  -0.010772  21.661232  17.101284   0.380847   # H_
 324 1 3   0.003833  21.204268  16.964383  25.255882   # C_3
 325 1 3  -0.101413  22.262895  17.400905  24.287626   # C_3
 326 1 3  -0.007623  21.964080  16.789828  22.920502   # C_3
 327 1 4   0.038089  21.948750  15.687092  22.995004   # H_
 328 1 3  -0.175890  23.028893  17.208868  21.949019   # C_3
 329 1 4   0.035435  20.980494  17.146200  22.527014   # H_
 330 1 4   0.069601  20.223909  17.137862  24.734906   # H_
 331 1 4   0.073511  21.316963  15.880474  25.462981   # H_
 332 1 4   0.096865  23.242716  17.029471  24.651529   # H_
 333 1 4   0.093906  22.297322  18.507138  24.222538   # H_
 334 1 4   0.103381  24.027273  16.853034  22.285488   # H_
 335 1 4   0.093712  23.038307  18.320479  21.872903   # H_
 336 1 4   0.083231  22.800277  16.775304  20.953329   # H_
 337 1 2  -0.614768  24.962178   3.566410   0.000000   # O_3
 338 1 3   0.501356  23.743789   3.152211   0.000000   # C_3
 339 1 2  -0.681248  23.329590   1.933822   0.000000   # O_3
 340 1 3  -0.214082  22.686776   4.209224   0.000000   # C_3
 341 1 3   0.132553  23.004149   5.535197   0.000000   # C_3
 342 1 3   0.130912  21.360803   3.891851   0.000000   # C_3
 343 1 3  -0.194356  22.068168   6.508832   0.000000   # C_3
 344 1 4   0.009534  23.899786   5.779950   0.000000   # H_
 345 1 3  -0.199055  20.387168   4.827832   0.000000   # C_3
 346 1 4  -0.026710  21.116050   2.996214   0.000000   # H_
 347 1 3   0.110635  20.691093   6.204907   0.000000   # C_3
 348 1 3  -0.049281  19.652907   7.243093   0.000000   # C_3
 349 1 4   0.099909  22.337128   7.399090   0.000000   # H_
 350 1 3   0.032241  19.956832   8.620168   0.000000   # C_3
 351 1 4   0.070829  19.496910   4.558872   0.000000   # H_
 352 1 3  -0.073394  18.275832   6.939168   0.000000   # C_3
 353 1 3  -0.035107  18.983197   9.556149   0.000000   # C_3
 354 1 5  -0.226487  21.325569   9.164812   0.387840   # N_3
 355 1 3   0.015661  17.339851   7.912803   0.000000   # C_3
 356 1 4   0.026587  18.006872   6.048910   0.000000   # H_
 357 1 3  -0.127722  17.657224   9.238776   0.000000   # C_3
 358 1 3   0.467644  16.600211  10.295789   0.000000   # C_3
 359 1 4   0.035149  19.227950  10.451786   0.000000   # H_
 360 1 4   0.014724  16.444214   7.668050   0.000000   # H_
 361 1 2  -0.672912  17.014410  11.514178   0.000000   # O_3
 362 1 2  -0.673796  15.381822   9.881590   0.000000   # O_3
 363 1 4   0.214550  21.661232   9.794447  26.515153   # H_
 364 1 3  -0.000668  21.204268   9.931617   1.640118   # C_3
 365 1 3  -0.103433  22.262895   9.495095   2.608374   # C_3
 366 1 3  -0.011968  21.964080  10.106172   3.975498   # C_3
 367 1 4   0.026870  21.948750  11.208908   3.900996   # H_
 368 1 3  -0.171418  23.028893   9.687132   4.946981   # C_3
 369 1 4   0.030067  20.980494   9.749800   4.368986   # H_
 370 1 4   0.035027  20.223909   9.758138   2.161094   # H_
 371 1 4   0.005640  21.316963  11.015526   1.433019   # H_
 372 1 4   0.053369  23.242716   9.866529   2.244471   # H_
 373 1 4   0.064269  22.297322   8.388862   2.673462   # H_
 374 1 4   0.087679  24.027273  10.042966   4.610512   # H_
 375 1 4   0.083809  23.038307   8.575252   5.023097   # H_
 376 1 4   0.079400  22.800277  10.120696   5.942671   # H_
 377 1 2  -0.685916   0.000000   1.933822   3.566410   # O_3
 378 1 3   0.514482   0.000000   3.152211   3.152211   # C_3
 379 1 2  -0.686145   0.000000   3.566410   1.933822   # O_3
 380 1 3  -0.244886   0.000000   4.209224   4.209224   # C_3
 381 1 3   0.149355   0.000000   3.891851   5.535197   # C_3
 382 1 3   0.145549   0.000000   5.535197   3.891851   # C_3
 383 1 3  -0.217662   0.000000   4.827832   6.508832   # C_3
 384 1 4  -0.032727   0.000000   2.996214   5.779950   # H_
 385 1 3  -0.212808   0.000000   6.508832   4.827832   # C_3
 386 1 4  -0.031192   0.000000   5.779950   2.996214   # H_
 387 1 3   0.110660   0.000000   6.204907   6.204907   # C_3
 388 1 3  -0.038643   0.000000   7.243093   7.243093   # C_3
 389 1 4   0.092682   0.000000   4.558872   7.399090   # H_
 390 1 3  -0.005270   0.000000   6.939168   8.620168   # C_3
 391 1 4   0.075789   0.000000   7.399090   4.558872   # H_
 392 1 3  -0.087973   0.000000   8.620168   6.939168   # C_3
 393 1 3  -0.005630   0.000000   7.912803   9.556149   # C_3
 394 1 5  -0.111906   0.752819   5.648967   9.048083   # N_3
 395 1 3   0.029209   0.000000   9.556149   7.912803   # C_3
 396 1 4   0.030956   0.000000   8.889128   6.048910   # H_
 397 1 3  -0.143772   0.000000   9.238776   9.238776   # C_3
 398 1 3   0.472854   0.000000  10.295789  10.295789   # C_3
 399 1 4   0.014790   0.000000   7.668050  10.451786   # H_
 400 1 4   0.011978   0.000000  10.451786   7.668050   # H_
 401 1 2  -0.671856   0.000000   9.881590  11.514178   # O_3
 402 1 2  -0.670176   0.000000  11.514178   9.881590   # O_3
 403 1 4   0.078057   1.721075   5.964457   9.261100   # H_
 404 1 3  -0.369066   0.206561   4.951016  10.207032   # C_3
 405 1 3   0.022335   1.218927   4.004276  10.829674   # C_3
 406 1 3  -0.077660   1.555665   2.791805   9.963354   # C_3
 407 1 4  -0.017871   1.055130   1.802570  10.339091   # H_
 408 1 3  -0.127952   3.087392   2.463136  10.059104   # C_3
 409 1 4   0.027501   1.269222   2.961519   8.906341   # H_
 410 1 4   0.194478  26.164429   4.411751   9.930003   # H_
 411 1 4   0.221851  26.861035   5.675056  10.983520   # H_
 412 1 4  -0.033251   0.833507   3.581471  11.787979   # H_
 413 1 4   0.012619   2.112412   4.608361  11.068511   # H_
 414 1 4   0.019341   3.238009   1.442164   9.659698   # H_
 415 1 4   0.029207   3.399116   2.470398  11.136827   # H_
 416 1 4   0.050739   3.688248   3.220258   9.461475   # H_
 417 1 2  -0.676117   0.000000   1.933822  23.329590   # O_3
 418 1 3   0.495333   0.000000   3.152211  23.743789   # C_3
 419 1 2  -0.604729   0.000000   3.566410  24.962178   # O_3
 420 1 3  -0.194867   0.000000   4.209224  22.686776   # C_3
 421 1 3   0.109483   0.000000   3.891851  21.360803   # C_3
 422 1 3   0.110255   0.000000   5.535197  23.004149   # C_3
 423 1 3  -0.173340   0.000000   4.827832  20.387168   # C_3
 424 1 4  -0.019261   0.000000   2.996214  21.116050   # H_
 425 1 3  -0.165215   0.000000   6.508832  22.068168   # C_3
 426 1 4   0.021239   0.000000   5.779950  23.899786   # H_
 427 1 3   0.078620   0.000000   6.204907  20.691093   # C_3
 428 1 3  -0.008739   0.000000   7.243093  19.652907   # C_3
 429 1 4   0.062666   0.000000   4.558872  19.496910   # H_
 430 1 3  -0.048071   0.000000   6.939168  18.275832   # C_3
 431 1 4   0.082908   0.000000   7.399090  22.337128   # H_
 432 1 3  -0.107859   0.000000   8.620168  19.956832   # C_3
 433 1 3   0.011829   0.000000   7.912803  17.339851   # C_3
 434 1 5  -0.117321  26.143181   5.648967  17.847917   # N_3
 435 1 3   0.050896   0.000000   9.556149  18.983197   # C_3
 436 1 4   0.054713   0.000000   8.889128  20.847090   # H_
 437 1 3  -0.155672   0.000000   9.238776  17.657224   # C_3
 438 1 3   0.477735   0.000000  10.295789  16.600211   # C_3
 439 1 4   0.020710   0.000000   7.668050  16.444214   # H_
 440 1 4   0.013020   0.000000  10.451786  19.227950   # H_
 441 1 2  -0.671214   0.000000   9.881590  15.381822   # O_3
 442 1 2  -0.668596   0.000000  11.514178  17.014410   # O_3
 443 1 4   0.114500  25.175194   5.964457  17.634900   # H_
 444 1 3   0.337974  26.689439   4.951016  16.688968   # C_3
 445 1 3  -0.192972  25.677073   4.004276  16.066326   # C_3
 446 1 3   0.011112  25.340335   2.791805  16.932646   # C_3
 447 1 4   0.026967  25.840870   1.802570  16.556909   # H_
 448 1 3  -0.159751  23.808608   2.463136  16.836896   # C_3
 449 1 4   0.055688  25.626778   2.961519  17.989659   # H_
 450 1 4  -0.122406   0.731571   4.411751  16.965997   # H_
 451 1 4  -0.134800   0.034965   5.675056  15.912480   # H_
 452 1 4   0.094214  26.062493   3.581471  15.108021   # H_
 453 1 4   0.080699  24.783588   4.608361  15.827489   # H_
 454 1 4   0.043076  23.657991   1.442164  17.236302   # H_
 455 1 4   0.047929  23.496884   2.470398  15.759173   # H_
 456 1 4   0.068159  23.207752   3.220258  17.434525   # H_
 457 1 2  -0.607691   0.000000  24.962178  23.329590   # O_3
 458 1 3   0.484937   0.000000  23.743789  23.743789   # C_3
 459 1 2  -0.599326   0.000000  23.329590  24.962178   # O_3
 460 1 3  -0.172570   0.000000  22.686776  22.686776   # C_3
 461 1 3   0.102759   0.000000  23.004149  21.360803   # C_3
 462 1 3   0.101678   0.000000  21.360803  23.004149   # C_3
 463 1 3  -0.165723   0.000000  22.068168  20.387168   # C_3
 464 1 4   0.015109   0.000000  23.899786  21.116050   # H_
 465 1 3  -0.160943   0.000000  20.387168  22.068168   # C_3
 466 1 4   0.024144   0.000000  21.116050  23.899786   # H_
 467 1 3   0.085011   0.000000  20.691093  20.691093   # C_3
 468 1 3  -0.018206   0.000000  19.652907  19.652907   # C_3
 469 1 4   0.084003   0.000000  22.337128  19.496910   # H_
 470 1 3  -0.010304   0.000000  19.956832  18.275832   # C_3
 471 1 4   0.078682   0.000000  19.496910  22.337128   # H_
 472 1 3  -0.099651   0.000000  18.275832  19.956832   # C_3
 473 1 3   0.001089   0.000000  18.983197  17.339851   # C_3
 474 1 5  -0.110155   0.752819  21.247033  17.847917   # N_3
 475 1 3   0.041299   0.000000  17.339851  18.983197   # C_3
 476 1 4   0.047767   0.000000  18.006872  20.847090   # H_
 477 1 3  -0.148281   0.000000  17.657224  17.657224   # C_3
 478 1 3   0.475022   0.000000  16.600211  16.600211   # C_3
 479 1 4   0.013627   0.000000  19.227950  16.444214   # H_
 480 1 4   0.014140   0.000000  16.444214  19.227950   # H_
 481 1 2  -0.671670   0.000000  17.014410  15.381822   # O_3
 482 1 2  -0.668534   0.000000  15.381822  17.014410   # O_3
 483 1 4   0.083021   1.721075  20.931543  17.634900   # H_
 484 1 3  -0.360725   0.206561  21.944984  16.688968   # C_3
 485 1 3   0.020360   1.218927  22.891724  16.066326   # C_3
 486 1 3  -0.069794   1.555665  24.104195  16.932646   # C_3
 487 1 4   0.031270   1.055130  25.093430  16.556909   # H_
 488 1 3  -0.140117   3.087392  24.432864  16.836896   # C_3