 (written by mofun)

1304 atoms
0 bonds
0 angles
0 dihedrals
0 impropers

4 atom types
   0.000000  26.896000 xlo xhi
   0.000000  26.896000 ylo yhi
   0.000000  26.896000 zlo zhi

Masses

 1 91.2240   # Zr3+4
 2 15.9994   # O_3
 3 12.0107   # C_3
 4 1.0079   # H_

Pair Coeffs

 1   0.069000   2.783168 # Zr3+4
 2   0.060000   3.118146 # O_3
 3   0.105000   3.430851 # C_3
 4   0.044000   2.571134 # H_

Atoms

 1 1 1   3.191240   2.475508   0.000000   0.000000   # Zr3+4
 2 1 1   3.190690  24.420492   0.000000   0.000000   # Zr3+4
 3 1 1   3.190200   0.000000   2.475508   0.000000   # Zr3+4
 4 1 1   3.189730   0.000000  24.420492   0.000000   # Zr3+4
 5 1 1   3.191080   0.000000   0.000000   2.475508   # Zr3+4
 6 1 1   3.190550   0.000000   0.000000  24.420492   # Zr3+4
 7 1 1   3.215300   2.475508  13.448000  13.448000   # Zr3+4
 8 1 1   3.214240  24.420492  13.448000  13.448000   # Zr3+4
 9 1 1   3.202480   0.000000  15.923508  13.448000   # Zr3+4
 10 1 1   3.202440   0.000000  10.972492  13.448000   # Zr3+4
 11 1 1   3.202450   0.000000  13.448000  15.923508   # Zr3+4
 12 1 1   3.202420   0.000000  13.448000  10.972492   # Zr3+4
 13 1 1   3.203530  15.923508   0.000000  13.448000   # Zr3+4
 14 1 1   3.203500  10.972492   0.000000  13.448000   # Zr3+4
 15 1 1   3.215280  13.448000   2.475508  13.448000   # Zr3+4
 16 1 1   3.214300  13.448000  24.420492  13.448000   # Zr3+4
 17 1 1   3.203600  13.448000   0.000000  15.923508   # Zr3+4
 18 1 1   3.203550  13.448000   0.000000  10.972492   # Zr3+4
 19 1 1   3.202750  15.923508  13.448000   0.000000   # Zr3+4
 20 1 1   3.202710  10.972492  13.448000   0.000000   # Zr3+4
 21 1 1   3.202700  13.448000  15.923508   0.000000   # Zr3+4
 22 1 1   3.202660  13.448000  10.972492   0.000000   # Zr3+4
 23 1 1   3.215370  13.448000  13.448000   2.475508   # Zr3+4
 24 1 1   3.214340  13.448000  13.448000  24.420492   # Zr3+4
 25 1 2  -1.320940   1.221078   1.221078   1.221078   # O_3
 26 1 2  -1.152860  25.674922  25.674922   1.221078   # O_3
 27 1 2  -1.147480  25.674922   1.221078  25.674922   # O_3
 28 1 2  -1.154510   1.221078  25.674922  25.674922   # O_3
 29 1 2  -1.231700   1.221078   1.221078  25.674922   # O_3
 30 1 2  -1.071440  25.674922  25.674922  25.674922   # O_3
 31 1 2  -1.237290   1.221078  25.674922   1.221078   # O_3
 32 1 2  -1.230170  25.674922   1.221078   1.221078   # O_3
 33 1 2  -1.272170   1.221078  14.669078  14.669078   # O_3
 34 1 2  -1.183470  25.674922  12.226922  14.669078   # O_3
 35 1 2  -1.183440  25.674922  14.669078  12.226922   # O_3
 36 1 2  -1.272350   1.221078  12.226922  12.226922   # O_3
 37 1 2  -1.271630   1.221078  14.669078  12.226922   # O_3
 38 1 2  -1.183260  25.674922  12.226922  12.226922   # O_3
 39 1 2  -1.271610   1.221078  12.226922  14.669078   # O_3
 40 1 2  -1.183840  25.674922  14.669078  14.669078   # O_3
 41 1 2  -1.270290  14.669078   1.221078  14.669078   # O_3
 42 1 2  -1.188250  12.226922  25.674922  14.669078   # O_3
 43 1 2  -1.270510  12.226922   1.221078  12.226922   # O_3
 44 1 2  -1.188260  14.669078  25.674922  12.226922   # O_3
 45 1 2  -1.269390  14.669078   1.221078  12.226922   # O_3
 46 1 2  -1.188210  12.226922  25.674922  12.226922   # O_3
 47 1 2  -1.188820  14.669078  25.674922  14.669078   # O_3
 48 1 2  -1.269390  12.226922   1.221078  14.669078   # O_3
 49 1 2  -1.271050  14.669078  14.669078   1.221078   # O_3
 50 1 2  -1.271270  12.226922  12.226922   1.221078   # O_3
 51 1 2  -1.183490  12.226922  14.669078  25.674922   # O_3
 52 1 2  -1.183570  14.669078  12.226922  25.674922   # O_3
 53 1 2  -1.186360  14.669078  14.669078  25.674922   # O_3
 54 1 2  -1.185780  12.226922  12.226922  25.674922   # O_3
 55 1 2  -1.272060  14.669078  12.226922   1.221078   # O_3
 56 1 2  -1.272090  12.226922  14.669078   1.221078   # O_3
 57 1 2  -0.673270   3.566410   0.000000   1.933822   # O_3
 58 1 3   0.502153   3.152211   0.000000   3.152211   # C_3
 59 1 2  -0.672868   1.933822   0.000000   3.566410   # O_3
 60 1 3  -0.203490   4.209224   0.000000   4.209224   # C_3
 61 1 3   0.097753   5.535197   0.000000   3.891851   # C_3
 62 1 3   0.102814   3.891851   0.000000   5.535197   # C_3
 63 1 3  -0.153619   6.508832   0.000000   4.827832   # C_3
 64 1 4  -0.015113   5.779950   0.000000   2.996214   # H_
 65 1 3  -0.153247   4.827832   0.000000   6.508832   # C_3
 66 1 2  -0.005670   2.484384  26.771472   5.929492   # O_3
 67 1 3   0.037986   6.204907   0.000000   6.204907   # C_3
 68 1 3   0.055584   7.243093   0.000000   7.243093   # C_3
 69 1 4   0.048301   7.399090   0.000000   4.558872   # H_
 70 1 3  -0.182385   8.620168   0.000000   6.939168   # C_3
 71 1 4   0.053372   4.558872   0.000000   7.399090   # H_
 72 1 3  -0.175924   6.939168   0.000000   8.620168   # C_3
 73 1 3   0.119604   9.556149   0.000000   7.912803   # C_3
 74 1 4   0.055213   8.889128   0.000000   6.048910   # H_
 75 1 3   0.112884   7.912803   0.000000   9.556149   # C_3
 76 1 4   0.060062   6.048910   0.000000   8.889128   # H_
 77 1 3  -0.220161   9.238776   0.000000   9.238776   # C_3
 78 1 3   0.499523  10.295789   0.000000  10.295789   # C_3
 79 1 2  -0.086864  10.965768  26.849201   7.468750   # O_3
 80 1 4  -0.024442   7.668050   0.000000  10.451786   # H_
 81 1 2  -0.666457  11.514178   0.000000   9.881590   # O_3
 82 1 2  -0.667450   9.881590   0.000000  11.514178   # O_3
 83 1 3   0.037194  11.163185  25.843291   6.478171   # C_3
 84 1 3  -0.244438   2.114026   0.676165   7.019318   # C_3
 85 1 3  -0.097188  10.441834  24.505484   6.811412   # C_3
 86 1 4   0.055231  12.284748  25.701818   6.449661   # H_
 87 1 4   0.050367  10.889921  26.280620   5.494584   # H_
 88 1 4   0.070507  11.022519  23.943357   7.562886   # H_
 89 1 3  -0.012730  10.233928  23.744327   5.487322   # C_3
 90 1 4   0.088948   9.406876  24.605268   7.267299   # H_
 91 1 3  -0.182874   9.283154  22.521097   5.654346   # C_3
 92 1 4   0.023915  11.194384  23.415389   5.041386   # H_
 93 1 4   0.036010   9.744152  24.470519   4.729124   # H_
 94 1 3   0.224483   1.962063  26.720100   8.301181   # C_3
 95 1 4   0.041240   1.087674   1.007255   6.807378   # H_
 96 1 4   0.068459   2.748502   1.582023   7.207321   # H_
 97 1 3  -0.121949   1.544637  25.221186   8.264872   # C_3
 98 1 4  -0.140763   1.303918   0.336469   8.964706   # H_
 99 1 4   0.023083   2.911761  26.737045   8.772937   # H_
 100 1 4   0.040043   0.587140  25.123823   7.712159   # H_
 101 1 3  -0.107817   1.348028  24.734637   9.693318   # C_3
 102 1 4   0.070636   2.311711  24.559544   7.759227   # H_
 103 1 4   0.046072   2.388365  24.430444  10.041622   # H_
 104 1 4   0.021322   0.642814  23.885800   9.712415   # H_
 105 1 4   0.037472   0.978476  25.491222  10.431883   # H_
 106 1 4   0.071521   9.736352  21.644018   6.075806   # H_
 107 1 4   0.070700   8.895045  22.166876   4.711372   # H_
 108 1 4   0.079119   8.481654  22.886882   6.328629   # H_
 109 1 2  -0.675205  23.329590   0.000000   1.933822   # O_3
 110 1 3   0.527684  23.743789   0.000000   3.152211   # C_3
 111 1 2  -0.601795  24.962178   0.000000   3.566410   # O_3
 112 1 3  -0.270381  22.686776   0.000000   4.209224   # C_3
 113 1 3   0.167911  21.360803   0.000000   3.891851   # C_3
 114 1 3   0.278391  23.004149   0.000000   5.535197   # C_3
 115 1 3  -0.207618  20.387168   0.000000   4.827832   # C_3
 116 1 4  -0.033299  21.116050   0.000000   2.996214   # H_
 117 1 3  -0.254178  22.068168   0.000000   6.508832   # C_3
 118 1 2  -0.299842  24.411616   0.124528   5.929492   # O_3
 119 1 3   0.091329  20.691093   0.000000   6.204907   # C_3
 120 1 3   0.070201  19.652907   0.000000   7.243093   # C_3
 121 1 4   0.083202  19.496910   0.000000   4.558872   # H_
 122 1 3  -0.237188  18.275832   0.000000   6.939168   # C_3
 123 1 4   0.096410  22.337128   0.000000   7.399090   # H_
 124 1 3  -0.183958  19.956832   0.000000   8.620168   # C_3
 125 1 3   0.253021  17.339851   0.000000   7.912803   # C_3
 126 1 4   0.102137  18.006872   0.000000   6.048910   # H_
 127 1 3   0.142047  18.983197   0.000000   9.556149   # C_3
 128 1 4   0.063444  20.847090   0.000000   8.889128   # H_
 129 1 3  -0.262793  17.657224   0.000000   9.238776   # C_3
 130 1 3   0.521523  16.600211   0.000000  10.295789   # C_3
 131 1 2  -0.242700  15.930232   0.046799   7.468750   # O_3
 132 1 4  -0.017741  19.227950   0.000000  10.451786   # H_
 133 1 2  -0.654304  15.381822   0.000000   9.881590   # O_3
 134 1 2  -0.667107  17.014410   0.000000  11.514178   # O_3
 135 1 3   0.068840  15.732815   1.052709   6.478171   # C_3
 136 1 3   0.336140  24.781974  26.219835   7.019318   # C_3
 137 1 3  -0.122367  16.454166   2.390248   6.811412   # C_3
 138 1 4   0.005295  14.611252   1.194182   6.449661   # H_
 139 1 4  -0.008684  16.006079   0.615380   5.494584   # H_
 140 1 4   0.068337  15.873481   2.952643   7.562886   # H_
 141 1 3  -0.006683  16.662072   3.151942   5.487322   # C_3
 142 1 4   0.063464  17.489124   2.290732   7.267299   # H_
 143 1 3  -0.185099  17.612846   4.374903   5.654346   # C_3
 144 1 4   0.016490  15.701616   3.480611   5.041386   # H_
 145 1 4   0.017862  17.151848   2.425750   4.729124   # H_
 146 1 3  -0.431830  24.933668   0.175900   8.301181   # C_3
 147 1 4   0.046945  25.808326  25.888476   6.807378   # H_
 148 1 4   0.005185  24.147498  25.313977   7.207321   # H_
 149 1 3   0.081995  25.351632   1.674814   8.264872   # C_3
 150 1 4   0.231689  25.592082  26.559531   8.964706   # H_
 151 1 4   0.087872  23.984239   0.158955   8.772937   # H_
 152 1 4   0.052906  26.308860   1.772177   7.712159   # H_
 153 1 3  -0.195059  25.547972   2.161363   9.693318   # C_3
 154 1 4   0.032392  24.584020   2.336456   7.759496   # H_
 155 1 4   0.056662  24.507635   2.465556  10.041622   # H_
 156 1 4   0.097041  26.253186   3.010200   9.712415   # H_
 157 1 4   0.061554  25.917524   1.404778  10.431883   # H_
 158 1 4   0.071735  17.159917   5.251982   6.075806   # H_
 159 1 4   0.068259  18.000686   4.729124   4.711372   # H_
 160 1 4   0.069778  18.414346   4.009118   6.328629   # H_
 161 1 2  -0.607724  23.329590   0.000000  24.962178   # O_3
 162 1 3   0.482728  23.743789   0.000000  23.743789   # C_3
 163 1 2  -0.604890  24.962178   0.000000  23.329590   # O_3
 164 1 3  -0.168111  22.686776   0.000000  22.686776   # C_3
 165 1 3   0.079837  21.360803   0.000000  23.004149   # C_3
 166 1 3   0.096935  23.004149   0.000000  21.360803   # C_3
 167 1 3  -0.131462  20.387168   0.000000  22.068168   # C_3
 168 1 4   0.006304  21.116050   0.000000  23.899786   # H_
 169 1 3  -0.137338  22.068168   0.000000  20.387168   # C_3
 170 1 2   0.021118  24.411616  26.771472  20.966508   # O_3
 171 1 3   0.030870  20.691093   0.000000  20.691093   # C_3
 172 1 3   0.065310  19.652907   0.000000  19.652907   # C_3
 173 1 4   0.045093  19.496910   0.000000  22.337128   # H_
 174 1 3  -0.186765  18.275832   0.000000  19.956832   # C_3
 175 1 4   0.051706  22.337128   0.000000  19.496910   # H_
 176 1 3  -0.179738  19.956832   0.000000  18.275832   # C_3
 177 1 3   0.125811  17.339851   0.000000  18.983197   # C_3
 178 1 4   0.060575  18.006872   0.000000  20.847090   # H_
 179 1 3   0.118336  18.983197   0.000000  17.339851   # C_3
 180 1 4   0.063957  20.847090   0.000000  18.006872   # H_
 181 1 3  -0.222805  17.657224   0.000000  17.657224   # C_3
 182 1 3   0.500989  16.600211   0.000000  16.600211   # C_3
 183 1 2  -0.087570  15.930232  26.849201  19.427250   # O_3
 184 1 4  -0.025177  19.227950   0.000000  16.444214   # H_
 185 1 2  -0.665963  15.381822   0.000000  17.014410   # O_3
 186 1 2  -0.667262  17.014410   0.000000  15.381822   # O_3
 187 1 3   0.035944  15.732815  25.843291  20.417829   # C_3
 188 1 3  -0.250728  24.781974   0.676165  19.876682   # C_3
 189 1 3  -0.097483  16.454166  24.505484  20.084588   # C_3
 190 1 4   0.058196  14.611252  25.701818  20.446339   # H_
 191 1 4   0.054262  16.006079  26.280620  21.401416   # H_
 192 1 4   0.070383  15.873481  23.943357  19.333114   # H_
 193 1 3  -0.010750  16.662072  23.744327  21.408678   # C_3
 194 1 4   0.088316  17.489124  24.605268  19.628701   # H_
 195 1 3  -0.187659  17.612846  22.521097  21.241923   # C_3
 196 1 4   0.025913  15.701616  23.415389  21.854614   # H_
 197 1 4   0.037108  17.151848  24.470519  22.166876   # H_
 198 1 3   0.228725  24.933668  26.720100  18.594819   # C_3
 199 1 4   0.126444  25.808326   1.007255  20.088622   # H_
 200 1 4   0.097744  24.147498   1.582023  19.688679   # H_
 201 1 3  -0.114518  25.351632  25.221186  18.631128   # C_3
 202 1 4  -0.075721  25.592082   0.336469  17.931294   # H_
 203 1 4   0.024373  23.984239  26.737045  18.123063   # H_
 204 1 4   0.119700  26.308860  25.123823  19.183841   # H_
 205 1 3  -0.113477  25.547972  24.734637  17.202682   # C_3
 206 1 4   0.086098  24.584020  24.559544  19.136504   # H_
 207 1 4   0.055758  24.507635  24.430444  16.854378   # H_
 208 1 4   0.083496  26.253186  23.885800  17.183585   # H_
 209 1 4   0.094890  25.917524  25.491222  16.464117   # H_
 210 1 4   0.075479  17.159917  21.644018  20.820194   # H_
 211 1 4   0.082719  18.000955  22.166876  22.184628   # H_
 212 1 4   0.083545  18.414346  22.886882  20.567371   # H_
 213 1 2  -0.621325   3.566410   0.000000  24.962178   # O_3
 214 1 3   0.527865   3.152211   0.000000  23.743789   # C_3
 215 1 2  -0.657709   1.933822   0.000000  23.329590   # O_3
 216 1 3  -0.270755   4.209224   0.000000  22.686776   # C_3
 217 1 3   0.167037   5.535197   0.000000  23.004149   # C_3
 218 1 3   0.279427   3.891851   0.000000  21.360803   # C_3
 219 1 3  -0.204210   6.508832   0.000000  22.068168   # C_3
 220 1 4  -0.020786   5.779950   0.000000  23.899786   # H_
 221 1 3  -0.257069   4.827832   0.000000  20.387168   # C_3
 222 1 2  -0.332325   2.484384   0.124528  20.966508   # O_3
 223 1 3   0.091028   6.204907   0.000000  20.691093   # C_3
 224 1 3   0.070455   7.243093   0.000000  19.652907   # C_3
 225 1 4   0.084329   7.399090   0.000000  22.337128   # H_
 226 1 3  -0.237060   8.620168   0.000000  19.956832   # C_3
 227 1 4   0.095502   4.558872   0.000000  19.496910   # H_
 228 1 3  -0.184679   6.939168   0.000000  18.275832   # C_3
 229 1 3   0.253550   9.556149   0.000000  18.983197   # C_3
 230 1 4   0.104034   8.889128   0.000000  20.847090   # H_
 231 1 3   0.141965   7.912803   0.000000  17.339851   # C_3
 232 1 4   0.062394   6.048910   0.000000  18.006872   # H_
 233 1 3  -0.262892   9.238776   0.000000  17.657224   # C_3
 234 1 3   0.521551  10.295789   0.000000  16.600211   # C_3
 235 1 2  -0.240586  10.965768   0.046799  19.427250   # O_3
 236 1 4  -0.018129   7.668050   0.000000  16.444214   # H_
 237 1 2  -0.653997  11.514178   0.000000  17.014410   # O_3
 238 1 2  -0.667266   9.881590   0.000000  15.381822   # O_3
 239 1 3   0.067121  11.163185   1.052709  20.417829   # C_3
 240 1 3   0.356593   2.114026  26.219835  19.876682   # C_3
 241 1 3  -0.121730  10.441834   2.390248  20.084588   # C_3
 242 1 4   0.009170  12.284748   1.194182  20.446339   # H_
 243 1 4  -0.003690  10.889921   0.615380  21.401416   # H_
 244 1 4   0.068183  11.022519   2.952643  19.333114   # H_
 245 1 3  -0.005337  10.233928   3.151942  21.408678   # C_3
 246 1 4   0.063287   9.406876   2.290732  19.628701   # H_
 247 1 3  -0.188397   9.283154   4.374903  21.241923   # C_3
 248 1 4   0.018905  11.194384   3.480611  21.854614   # H_
 249 1 4   0.019287   9.744152   2.425750  22.166876   # H_
 250 1 3  -0.454765   1.962063   0.175900  18.594819   # C_3
 251 1 4  -0.038713   1.087674  25.888476  20.088622   # H_
 252 1 4  -0.022321   2.748502  25.313977  19.688679   # H_
 253 1 3   0.079507   1.544637   1.674814  18.631128   # C_3
 254 1 4   0.175728   1.303918  26.559531  17.931294   # H_
 255 1 4   0.088879   2.911761   0.158955  18.123063   # H_
 256 1 4  -0.030341   0.587140   1.772177  19.183572   # H_
 257 1 3  -0.191882   1.348028   2.161363  17.202682   # C_3
 258 1 4   0.016694   2.311711   2.336456  19.136504   # H_
 259 1 4   0.047009   2.388365   2.465556  16.854378   # H_
 260 1 4   0.034208   0.642814   3.010200  17.183585   # H_
 261 1 4   0.002286   0.978476   1.404778  16.464117   # H_
 262 1 4   0.074378   9.736352   5.251982  20.820194   # H_
 263 1 4   0.078052   8.895045   4.729124  22.184628   # H_
 264 1 4   0.071791   8.481654   4.009118  20.567371   # H_
 265 1 2  -0.676245   1.933822   3.566410   0.000000   # O_3
 266 1 3   0.504346   3.152211   3.152211   0.000000   # C_3
 267 1 2  -0.675850   3.566410   1.933822   0.000000   # O_3
 268 1 3  -0.210740   4.209224   4.209224   0.000000   # C_3
 269 1 3   0.102782   3.891851   5.535197   0.000000   # C_3
 270 1 3   0.115031   5.535197   3.891851   0.000000   # C_3
 271 1 3  -0.158882   4.827832   6.508832   0.000000   # C_3
 272 1 4  -0.017589   2.996214   5.779950   0.000000   # H_
 273 1 3  -0.164253   6.508832   4.827832   0.000000   # C_3
 274 1 2  -0.032109   5.923306   2.511011  26.645329   # O_3
 275 1 3   0.044276   6.204907   6.204907   0.000000   # C_3
 276 1 3   0.055704   7.243093   7.243093   0.000000   # C_3
 277 1 4   0.049066   4.558872   7.399090   0.000000   # H_
 278 1 3  -0.181568   6.939168   8.620168   0.000000   # C_3
 279 1 4   0.064099   7.399090   4.558872   0.000000   # H_
 280 1 3  -0.173676   8.620168   6.939168   0.000000   # C_3
 281 1 3   0.128738   7.912803   9.556149   0.000000   # C_3
 282 1 4   0.059094   6.048910   8.889128   0.000000   # H_
 283 1 3   0.108703   9.556149   7.912803   0.000000   # C_3
 284 1 4   0.053494   8.889128   6.048910   0.000000   # H_
 285 1 3  -0.223118   9.238776   9.238776   0.000000   # C_3
 286 1 3   0.498511  10.295789  10.295789   0.000000   # C_3
 287 1 2  -0.106767   7.517432  10.976527  26.724135   # O_3
 288 1 4  -0.030426  10.451786   7.668050   0.000000   # H_
 289 1 2  -0.667376   9.881590  11.514178   0.000000   # O_3
 290 1 2  -0.676605  11.514178   9.881590   0.000000   # O_3
 291 1 3   0.207774   6.177473  11.086262  26.210690   # C_3
 292 1 3  -0.053036   6.816253   2.020159   0.691765   # C_3
 293 1 3  -0.162134   5.790171  12.344726  25.454643   # C_3
 294 1 4  -0.098800   5.479253  10.970072   0.165948   # H_
 295 1 4   0.017134   5.956119  10.305202  25.431782   # H_
 296 1 4   0.116487   6.295278  13.206474  25.884710   # H_
 297 1 3   0.006177   4.267588  12.559625  25.396279   # C_3
 298 1 4   0.071751   6.095172  12.195722  24.414306   # H_
 299 1 3  -0.163190   4.002932  13.881295  24.620329   # C_3
 300 1 4   0.062107   3.719986  12.600507  26.372335   # H_
 301 1 4   0.022247   3.887817  11.695188  24.820974   # H_
 302 1 3  -0.207313   8.254651   1.961525   0.101667   # C_3
 303 1 4  -0.003685   6.540838   0.970677   0.831086   # H_
 304 1 4   0.036836   6.757082   2.529838   1.672662   # H_
 305 1 3   0.083464   8.325657   1.713813  25.479926   # C_3
 306 1 4   0.006172   8.772399   1.170245   0.563740   # H_
 307 1 4   0.027603   8.804406   2.883520   0.331897   # H_
 308 1 4   0.015952   7.540025   0.976863  25.182456   # H_
 309 1 3  -0.183010   9.626616   1.037110  24.960295   # C_3
 310 1 4   0.036889   8.176384   2.670504  24.948999   # H_
 311 1 4   0.061078  10.337747   0.797197  25.796223   # H_
 312 1 4   0.054509  10.172067   1.779708  24.320977   # H_
 313 1 4   0.033765   9.387242   0.111887  24.388755   # H_
 314 1 4   0.057678   2.933816  14.183875  24.673584   # H_
 315 1 4   0.053369   4.235313  13.699747  23.549600   # H_
 316 1 4   0.080004   4.638484  14.711305  24.973743   # H_
 317 1 2  -0.678052   1.933822  23.329590   0.000000   # O_3
 318 1 3   0.525543   3.152211  23.743789   0.000000   # C_3
 319 1 2  -0.613321   3.566410  24.962178   0.000000   # O_3
 320 1 3  -0.266217   4.209224  22.686776   0.000000   # C_3
 321 1 3   0.161064   3.891851  21.360803   0.000000   # C_3
 322 1 3   0.261296   5.535197  23.004149   0.000000   # C_3
 323 1 3  -0.202873   4.827832  20.387168   0.000000   # C_3
 324 1 4  -0.032400   2.996214  21.116050   0.000000   # H_
 325 1 3  -0.245682   6.508832  22.068168   0.000000   # C_3
 326 1 2  -0.278706   5.923306  24.384989   0.250671   # O_3
 327 1 3   0.087679   6.204907  20.691093   0.000000   # C_3
 328 1 3   0.065018   7.243093  19.652907   0.000000   # C_3
 329 1 4   0.076596   4.558872  19.496910   0.000000   # H_
 330 1 3  -0.219368   6.939168  18.275832   0.000000   # C_3
 331 1 4   0.088785   7.399090  22.337128   0.000000   # H_
 332 1 3  -0.179811   8.620168  19.956832   0.000000   # C_3
 333 1 3   0.229895   7.912803  17.339851   0.000000   # C_3
 334 1 4   0.080526   6.048910  18.006872   0.000000   # H_
 335 1 3   0.134989   9.556149  18.983197   0.000000   # C_3
 336 1 4   0.069230   8.889128  20.847090   0.000000   # H_
 337 1 3  -0.252863   9.238776  17.657224   0.000000   # C_3
 338 1 3   0.516413  10.295789  16.600211   0.000000   # C_3
 339 1 2  -0.210499   7.517432  15.919473   0.171865   # O_3
 340 1 4  -0.016768  10.451786  19.227950   0.000000   # H_
 341 1 2  -0.656036   9.881590  15.381822   0.000000   # O_3
 342 1 2  -0.671983  11.514178  17.014410   0.000000   # O_3
 343 1 3  -0.102412   6.177473  15.809738   0.685310   # C_3
 344 1 3   0.149220   6.816253  24.875841  26.204235   # C_3
 345 1 3  -0.080725   5.790171  14.551274   1.441357   # C_3
 346 1 4   0.144316   5.479253  15.925928  26.730052   # H_
 347 1 4   0.045001   5.956119  16.590798   1.464218   # H_
 348 1 4   0.029180   6.295278  13.689526   1.011559   # H_
 349 1 3  -0.047753   4.267588  14.336375   1.499721   # C_3
 350 1 4   0.051134   6.095172  14.700278   2.481694   # H_
 351 1 3  -0.152825   4.002932  13.014705   2.275671   # C_3
 352 1 4  -0.025207   3.719986  14.295493   0.523665   # H_
 353 1 4   0.019011   3.887817  15.200812   2.075026   # H_
 354 1 3  -0.006060   8.254651  24.934475  26.794333   # C_3
 355 1 4   0.091260   6.540838  25.925323  26.064914   # H_
 356 1 4   0.049466   6.757082  24.366162  25.223338   # H_
 357 1 3  -0.133198   8.325657  25.182187   1.416074   # C_3
 358 1 4   0.093283   8.772399  25.726024  26.332529   # H_
 359 1 4   0.080936   8.804406  24.012480  26.564103   # H_
 360 1 4   0.090678   7.540025  25.919137   1.713544   # H_
 361 1 3  -0.122081   9.626616  25.858890   1.935705   # C_3
 362 1 4   0.057942   8.176384  24.225496   1.947001   # H_
 363 1 4   0.036882  10.337747  26.098803   1.099777   # H_
 364 1 4   0.046872  10.172067  25.116292   2.574754   # H_
 365 1 4   0.082532   9.387242  26.784113   2.507245   # H_
 366 1 4   0.024085   2.933816  12.712125   2.222416   # H_
 367 1 4   0.047940   4.235313  13.196253   3.346400   # H_
 368 1 4   0.040800   4.638484  12.184695   1.922257   # H_
 369 1 2  -0.610436  24.962178  23.329590   0.000000   # O_3
 370 1 3   0.485841  23.743789  23.743789   0.000000   # C_3
 371 1 2  -0.613711  23.329590  24.962178   0.000000   # O_3
 372 1 3  -0.177510  22.686776  22.686776   0.000000   # C_3
 373 1 3   0.086391  23.004149  21.360803   0.000000   # C_3
 374 1 3   0.109673  21.360803  23.004149   0.000000   # C_3
 375 1 3  -0.138476  22.068168  20.387168   0.000000   # C_3
 376 1 4   0.002581  23.899786  21.116050   0.000000   # H_
 377 1 3  -0.149387  20.387168  22.068168   0.000000   # C_3
 378 1 2  -0.011008  20.972694  24.384989  26.645329   # O_3
 379 1 3   0.038068  20.691093  20.691093   0.000000   # C_3
 380 1 3   0.065363  19.652907  19.652907   0.000000   # C_3
 381 1 4   0.046068  22.337128  19.496910   0.000000   # H_
 382 1 3  -0.185785  19.956832  18.275832   0.000000   # C_3
 383 1 4   0.063303  19.496910  22.337128   0.000000   # H_
 384 1 3  -0.177715  18.275832  19.956832   0.000000   # C_3
 385 1 3   0.134556  18.983197  17.339851   0.000000   # C_3
 386 1 4   0.063546  20.847090  18.006872   0.000000   # H_
 387 1 3   0.114749  17.339851  18.983197   0.000000   # C_3
 388 1 4   0.059220  18.006872  20.847090   0.000000   # H_
 389 1 3  -0.225725  17.657224  17.657224   0.000000   # C_3
 390 1 3   0.500035  16.600211  16.600211   0.000000   # C_3
 391 1 2  -0.108480  19.378568  15.919473  26.724135   # O_3
 392 1 4  -0.030578  16.444214  19.227950   0.000000   # H_
 393 1 2  -0.667061  17.014410  15.381822   0.000000   # O_3
 394 1 2  -0.676206  15.381822  17.014410   0.000000   # O_3
 395 1 3   0.203539  20.718527  15.809738  26.210690   # C_3
 396 1 3  -0.059859  20.080016  24.875841   0.691765   # C_3
 397 1 3  -0.161275  21.106098  14.551274  25.454643   # C_3
 398 1 4  -0.093812  21.417016  15.925928   0.165948   # H_
 399 1 4   0.018042  20.939881  16.590798  25.431782   # H_
 400 1 4   0.115750  20.600722  13.689526  25.884710   # H_
 401 1 3   0.006760  22.628412  14.336375  25.396279   # C_3
 402 1 4   0.071939  20.800828  14.700278  24.414306   # H_
 403 1 3  -0.167758  22.893068  13.014705  24.620329   # C_3
 404 1 4   0.070693  23.176014  14.295493  26.372335   # H_
 405 1 4   0.025124  23.008183  15.200812  24.820974   # H_
 406 1 3  -0.204932  18.641618  24.934475   0.101667   # C_3
 407 1 4   0.074327  20.355431  25.925323   0.831086   # H_
 408 1 4   0.069327  20.138918  24.366162   1.672662   # H_
 409 1 3   0.095766  18.570343  25.182187  25.479926   # C_3
 410 1 4   0.078961  18.123601  25.726024   0.563740   # H_
 411 1 4   0.041005  18.091594  24.012480   0.331897   # H_
 412 1 4   0.069417  19.355975  25.919137  25.182456   # H_
 413 1 3  -0.193281  17.269384  25.858890  24.960295   # C_3
 414 1 4   0.040811  18.719616  24.225496  24.948999   # H_
 415 1 4   0.121600  16.558253  26.098803  25.796223   # H_
 416 1 4   0.071236  16.723933  25.116292  24.320977   # H_
 417 1 4   0.110302  17.508758  26.784113  24.388755   # H_
 418 1 4   0.077381  23.962184  12.712125  24.673584   # H_
 419 1 4   0.056606  22.660687  13.196253  23.549600   # H_
 420 1 4   0.085127  22.257516  12.184695  24.973743   # H_
 421 1 2  -0.622902  24.962178   3.566410   0.000000   # O_3
 422 1 3   0.524368  23.743789   3.152211   0.000000   # C_3
 423 1 2  -0.663503  23.329590   1.933822   0.000000   # O_3
 424 1 3  -0.264292  22.686776   4.209224   0.000000   # C_3
 425 1 3   0.158846  23.004149   5.535197   0.000000   # C_3
 426 1 3   0.260771  21.360803   3.891851   0.000000   # C_3
 427 1 3  -0.198864  22.068168   6.508832   0.000000   # C_3
 428 1 4  -0.019986  23.899786   5.779950   0.000000   # H_
 429 1 3  -0.247219  20.387168   4.827832   0.000000   # C_3
 430 1 2  -0.303791  20.972694   2.511011   0.250671   # O_3
 431 1 3   0.086404  20.691093   6.204907   0.000000   # C_3
 432 1 3   0.065109  19.652907   7.243093   0.000000   # C_3
 433 1 4   0.077162  22.337128   7.399090   0.000000   # H_
 434 1 3  -0.219666  19.956832   8.620168   0.000000   # C_3
 435 1 4   0.086604  19.496910   4.558872   0.000000   # H_
 436 1 3  -0.180449  18.275832   6.939168   0.000000   # C_3
 437 1 3   0.230414  18.983197   9.556149   0.000000   # C_3
 438 1 4   0.082029  20.847090   8.889128   0.000000   # H_
 439 1 3   0.134390  17.339851   7.912803   0.000000   # C_3
 440 1 4   0.066654  18.006872   6.048910   0.000000   # H_
 441 1 3  -0.253159  17.657224   9.238776   0.000000   # C_3
 442 1 3   0.516398  16.600211  10.295789   0.000000   # C_3
 443 1 2  -0.210363  19.378568  10.976527   0.171865   # O_3
 444 1 4  -0.017687  16.444214   7.668050   0.000000   # H_
 445 1 2  -0.655939  17.014410  11.514178   0.000000   # O_3
 446 1 2  -0.672360  15.381822   9.881590   0.000000   # O_3
 447 1 3  -0.101152  20.718527  11.086262   0.685310   # C_3
 448 1 3   0.159328  20.080016   2.020159  26.204235   # C_3
 449 1 3  -0.081319  21.106098  12.344726   1.441357   # C_3
 450 1 4   0.144873  21.417016  10.970072  26.730052   # H_
 451 1 4   0.045496  20.939881  10.305202   1.464218   # H_
 452 1 4   0.029913  20.600722  13.206474   1.011559   # H_
 453 1 3  -0.046101  22.628412  12.559625   1.499721   # C_3
 454 1 4   0.051689  20.800828  12.195722   2.481694   # H_
 455 1 3  -0.157861  22.893068  13.881295   2.275671   # C_3
 456 1 4  -0.014777  23.176014  12.600507   0.523665   # H_
 457 1 4   0.021966  23.008183  11.695188   2.075026   # H_
 458 1 3  -0.003538  18.641618   1.961525  26.794333   # C_3
 459 1 4   0.014227  20.355431   0.970677  26.064914   # H_
 460 1 4   0.021648  20.138918   2.529838  25.223338   # H_
 461 1 3  -0.151781  18.570343   1.713813   1.416074   # C_3
 462 1 4   0.021868  18.123601   1.170245  26.332529   # H_
 463 1 4   0.068910  18.091594   2.883520  26.564103   # H_
 464 1 4   0.036227  19.355975   0.976863   1.713544   # H_
 465 1 3  -0.110269  17.269384   1.037110   1.935705   # C_3
 466 1 4   0.055387  18.719616   2.670504   1.947001   # H_
 467 1 4  -0.026160  16.558253   0.797197   1.099777   # H_
 468 1 4   0.029354  16.723933   1.779708   2.574754   # H_
 469 1 4   0.003962  17.508758   0.111887   2.507245   # H_
 470 1 4   0.045088  23.962184  14.183875   2.222416   # H_
 471 1 4   0.051765  22.660687  13.699747   3.346400   # H_
 472 1 4   0.047470  22.257516  14.711305   1.922257   # H_
 473 1 2  -0.674486   0.000000   1.933822   3.566410   # O_3
 474 1 3   0.499698   0.000000   3.152211   3.152211   # C_3
 475 1 2  -0.676014   0.000000   3.566410   1.933822   # O_3
 476 1 3  -0.199379   0.000000   4.209224   4.209224   # C_3
 477 1 3   0.085612   0.000000   3.891851   5.535197   # C_3
 478 1 3   0.099673   0.000000   5.535197   3.891851   # C_3
 479 1 3  -0.137453   0.000000   4.827832   6.508832   # C_3
 480 1 4  -0.012186   0.000000   2.996214   5.779950   # H_
 481 1 3  -0.144689   0.000000   6.508832   4.827832   # C_3
 482 1 2  -0.027495  26.597454   5.898562   2.502404   # O_3
 483 1 3   0.013375   0.000000   6.204907   6.204907   # C_3
 484 1 3   0.107099   0.000000   7.243093   7.243093   # C_3
 485 1 4   0.039312   0.000000   4.558872   7.399090   # H_
 486 1 3  -0.277395   0.000000   6.939168   8.620168   # C_3
 487 1 4   0.053705   0.000000   7.399090   4.558872   # H_
 488 1 3  -0.227203   0.000000   8.620168   6.939168   # C_3
 489 1 3   0.271126   0.000000   7.912803   9.556149   # C_3