 (written by mofun)

1112 atoms
0 bonds
0 angles
0 dihedrals
0 impropers

5 atom types
   0.000000  26.896000 xlo xhi
   0.000000  26.896000 ylo yhi
   0.000000  26.896000 zlo zhi

Masses

 1 91.2240   # Zr3+4
 2 15.9994   # O_3
 3 12.0107   # C_3
 4 1.0079   # H_
 5 14.0067   # N_3

Pair Coeffs

 1   0.069000   2.783168 # Zr3+4
 2   0.060000   3.118146 # O_3
 3   0.105000   3.430851 # C_3
 4   0.044000   2.571134 # H_
 5   0.069000   3.260689 # N_3

Atoms

 1 1 1   3.188250   2.475508   0.000000   0.000000   # Zr3+4
 2 1 1   3.187520  24.420492   0.000000   0.000000   # Zr3+4
 3 1 1   3.187570   0.000000   2.475508   0.000000   # Zr3+4
 4 1 1   3.186910   0.000000  24.420492   0.000000   # Zr3+4
 5 1 1   3.188080   0.000000   0.000000   2.475508   # Zr3+4
 6 1 1   3.187360   0.000000   0.000000  24.420492   # Zr3+4
 7 1 1   3.215110   2.475508  13.448000  13.448000   # Zr3+4
 8 1 1   3.213910  24.420492  13.448000  13.448000   # Zr3+4
 9 1 1   3.200820   0.000000  15.923508  13.448000   # Zr3+4
 10 1 1   3.200780   0.000000  10.972492  13.448000   # Zr3+4
 11 1 1   3.200930   0.000000  13.448000  15.923508   # Zr3+4
 12 1 1   3.200850   0.000000  13.448000  10.972492   # Zr3+4
 13 1 1   3.201410  15.923508   0.000000  13.448000   # Zr3+4
 14 1 1   3.201350  10.972492   0.000000  13.448000   # Zr3+4
 15 1 1   3.214920  13.448000   2.475508  13.448000   # Zr3+4
 16 1 1   3.213770  13.448000  24.420492  13.448000   # Zr3+4
 17 1 1   3.201550  13.448000   0.000000  15.923508   # Zr3+4
 18 1 1   3.201500  13.448000   0.000000  10.972492   # Zr3+4
 19 1 1   3.200860  15.923508  13.448000   0.000000   # Zr3+4
 20 1 1   3.200810  10.972492  13.448000   0.000000   # Zr3+4
 21 1 1   3.200880  13.448000  15.923508   0.000000   # Zr3+4
 22 1 1   3.200820  13.448000  10.972492   0.000000   # Zr3+4
 23 1 1   3.214710  13.448000  13.448000   2.475508   # Zr3+4
 24 1 1   3.213520  13.448000  13.448000  24.420492   # Zr3+4
 25 1 2  -1.329810   1.221078   1.221078   1.221078   # O_3
 26 1 2  -1.139080  25.674922  25.674922   1.221078   # O_3
 27 1 2  -1.135370  25.674922   1.221078  25.674922   # O_3
 28 1 2  -1.140440   1.221078  25.674922  25.674922   # O_3
 29 1 2  -1.232230   1.221078   1.221078  25.674922   # O_3
 30 1 2  -1.050000  25.674922  25.674922  25.674922   # O_3
 31 1 2  -1.235790   1.221078  25.674922   1.221078   # O_3
 32 1 2  -1.230850  25.674922   1.221078   1.221078   # O_3
 33 1 2  -1.274400   1.221078  14.669078  14.669078   # O_3
 34 1 2  -1.175690  25.674922  12.226922  14.669078   # O_3
 35 1 2  -1.175720  25.674922  14.669078  12.226922   # O_3
 36 1 2  -1.274740   1.221078  12.226922  12.226922   # O_3
 37 1 2  -1.275220   1.221078  14.669078  12.226922   # O_3
 38 1 2  -1.176410  25.674922  12.226922  12.226922   # O_3
 39 1 2  -1.275180   1.221078  12.226922  14.669078   # O_3
 40 1 2  -1.177040  25.674922  14.669078  14.669078   # O_3
 41 1 2  -1.272800  14.669078   1.221078  14.669078   # O_3
 42 1 2  -1.179190  12.226922  25.674922  14.669078   # O_3
 43 1 2  -1.273130  12.226922   1.221078  12.226922   # O_3
 44 1 2  -1.179160  14.669078  25.674922  12.226922   # O_3
 45 1 2  -1.273780  14.669078   1.221078  12.226922   # O_3
 46 1 2  -1.180390  12.226922  25.674922  12.226922   # O_3
 47 1 2  -1.181060  14.669078  25.674922  14.669078   # O_3
 48 1 2  -1.273790  12.226922   1.221078  14.669078   # O_3
 49 1 2  -1.273810  14.669078  14.669078   1.221078   # O_3
 50 1 2  -1.274120  12.226922  12.226922   1.221078   # O_3
 51 1 2  -1.176480  12.226922  14.669078  25.674922   # O_3
 52 1 2  -1.176440  14.669078  12.226922  25.674922   # O_3
 53 1 2  -1.178440  14.669078  14.669078  25.674922   # O_3
 54 1 2  -1.177810  12.226922  12.226922  25.674922   # O_3
 55 1 2  -1.274890  14.669078  12.226922   1.221078   # O_3
 56 1 2  -1.274890  12.226922  14.669078   1.221078   # O_3
 57 1 2  -0.686532   3.566410   0.000000   1.933822   # O_3
 58 1 3   0.513600   3.152211   0.000000   3.152211   # C_3
 59 1 2  -0.686509   1.933822   0.000000   3.566410   # O_3
 60 1 3  -0.243588   4.209224   0.000000   4.209224   # C_3
 61 1 3   0.142807   5.535197   0.000000   3.891851   # C_3
 62 1 3   0.142894   3.891851   0.000000   5.535197   # C_3
 63 1 3  -0.214283   6.508832   0.000000   4.827832   # C_3
 64 1 4  -0.034995   5.779950   0.000000   2.996214   # H_
 65 1 3  -0.213683   4.827832   0.000000   6.508832   # C_3
 66 1 4  -0.033541   2.996214   0.000000   5.779950   # H_
 67 1 3   0.108740   6.204907   0.000000   6.204907   # C_3
 68 1 3  -0.053093   7.243093   0.000000   7.243093   # C_3
 69 1 4   0.078283   7.399090   0.000000   4.558872   # H_
 70 1 3   0.015588   8.620168   0.000000   6.939168   # C_3
 71 1 4   0.071623   4.558872   0.000000   7.399090   # H_
 72 1 3  -0.081360   6.939168   0.000000   8.620168   # C_3
 73 1 3  -0.025004   9.556149   0.000000   7.912803   # C_3
 74 1 5  -0.199286   9.201122   0.416081   5.572582   # N_3
 75 1 3   0.016408   7.912803   0.000000   9.556149   # C_3
 76 1 4   0.024433   6.048910   0.000000   8.889128   # H_
 77 1 3  -0.136267   9.238776   0.000000   9.238776   # C_3
 78 1 3   0.468587  10.295789   0.000000  10.295789   # C_3
 79 1 4   0.026706  10.451786   0.000000   7.668050   # H_
 80 1 4   0.011361   7.668050   0.000000  10.451786   # H_
 81 1 2  -0.671224  11.514178   0.000000   9.881590   # O_3
 82 1 2  -0.672373   9.881590   0.000000  11.514178   # O_3
 83 1 4   0.069882   9.661581   1.361207   5.593830   # H_
 84 1 3   0.065863   9.822419  26.251303   4.710296   # C_3
 85 1 3   0.069473  11.351995  26.460285   4.607554   # C_3
 86 1 4  -0.072819  11.567701   0.565892   4.188514   # H_
 87 1 3  -0.092121  12.084911  25.422637   3.754682   # C_3
 88 1 4   0.060644  11.819447  26.394928   5.604051   # H_
 89 1 3  -0.030187  11.567970  25.483422   2.325428   # C_3
 90 1 4   0.042413  11.850916  24.410810   4.186362   # H_
 91 1 4   0.059840  13.206743  25.524573   3.876252   # H_
 92 1 3   0.076635   9.342595  26.354315   3.224024   # C_3
 93 1 3  -0.104235  10.011229  25.490953   2.157597   # C_3
 94 1 4   0.048479   8.328615  25.936620   3.143067   # H_
 95 1 4   0.040078   9.594072  25.253730   5.120460   # H_
 96 1 4   0.053551   9.686056  25.850284   1.165942   # H_
 97 1 4   0.039910   9.659967  24.439319   2.293422   # H_
 98 1 4   0.015679  11.871625  24.535607   1.860396   # H_
 99 1 4   0.050063  12.030312  26.335756   1.779170   # H_
 100 1 4  -0.078019   9.314354   0.501879   2.821390   # H_
 101 1 2  -0.676502  23.329590   0.000000   1.933822   # O_3
 102 1 3   0.497292  23.743789   0.000000   3.152211   # C_3
 103 1 2  -0.608260  24.962178   0.000000   3.566410   # O_3
 104 1 3  -0.199497  22.686776   0.000000   4.209224   # C_3
 105 1 3   0.116760  21.360803   0.000000   3.891851   # C_3
 106 1 3   0.113186  23.004149   0.000000   5.535197   # C_3
 107 1 3  -0.181274  20.387168   0.000000   4.827832   # C_3
 108 1 4  -0.020154  21.116050   0.000000   2.996214   # H_
 109 1 3  -0.168754  22.068168   0.000000   6.508832   # C_3
 110 1 4   0.015625  23.899786   0.000000   5.779950   # H_
 111 1 3   0.080894  20.691093   0.000000   6.204907   # C_3
 112 1 3  -0.004730  19.652907   0.000000   7.243093   # C_3
 113 1 4   0.073119  19.496910   0.000000   4.558872   # H_
 114 1 3  -0.056428  18.275832   0.000000   6.939168   # C_3
 115 1 4   0.079127  22.337128   0.000000   7.399090   # H_
 116 1 3  -0.113673  19.956832   0.000000   8.620168   # C_3
 117 1 3   0.024224  17.339851   0.000000   7.912803   # C_3
 118 1 5  -0.044462  17.694878  26.479919   5.572582   # N_3
 119 1 3   0.056245  18.983197   0.000000   9.556149   # C_3
 120 1 4   0.052346  20.847090   0.000000   8.889128   # H_
 121 1 3  -0.163138  17.657224   0.000000   9.238776   # C_3
 122 1 3   0.480492  16.600211   0.000000  10.295789   # C_3
 123 1 4   0.014505  16.444214   0.000000   7.668050   # H_
 124 1 4   0.006373  19.227950   0.000000  10.451786   # H_
 125 1 2  -0.671951  15.381822   0.000000   9.881590   # O_3
 126 1 2  -0.672036  17.014410   0.000000  11.514178   # O_3
 127 1 4   0.108931  17.234419  25.534793   5.593830   # H_
 128 1 3   0.028751  17.073581   0.644697   4.710296   # C_3
 129 1 3  -0.259552  15.544005   0.435715   4.607554   # C_3
 130 1 4   0.163361  15.328299  26.330108   4.188514   # H_
 131 1 3  -0.004069  14.811089   1.473363   3.754682   # C_3
 132 1 4   0.053518  15.076553   0.501072   5.604051   # H_
 133 1 3  -0.107412  15.328030   1.412578   2.325428   # C_3
 134 1 4   0.024901  15.045084   2.485190   4.186362   # H_
 135 1 4  -0.009511  13.689257   1.371427   3.876252   # H_
 136 1 3  -0.261162  17.553405   0.541685   3.224024   # C_3
 137 1 3  -0.003563  16.884771   1.405047   2.157597   # C_3
 138 1 4   0.064777  18.567385   0.959649   3.143067   # H_
 139 1 4   0.025142  17.301928   1.642270   5.120460   # H_
 140 1 4  -0.040394  17.209675   1.045716   1.165942   # H_
 141 1 4   0.013687  17.236033   2.456950   2.293422   # H_
 142 1 4   0.017068  15.024375   2.360662   1.860396   # H_
 143 1 4  -0.022169  14.865688   0.560244   1.779170   # H_
 144 1 4   0.163735  17.581646  26.394121   2.821390   # H_
 145 1 2  -0.603187  23.329590   0.000000  24.962178   # O_3
 146 1 3   0.483163  23.743789   0.000000  23.743789   # C_3
 147 1 2  -0.602146  24.962178   0.000000  23.329590   # O_3
 148 1 3  -0.168169  22.686776   0.000000  22.686776   # C_3
 149 1 3   0.093412  21.360803   0.000000  23.004149   # C_3
 150 1 3   0.095459  23.004149   0.000000  21.360803   # C_3
 151 1 3  -0.157594  20.387168   0.000000  22.068168   # C_3
 152 1 4   0.016241  21.116050   0.000000  23.899786   # H_
 153 1 3  -0.159082  22.068168   0.000000  20.387168   # C_3
 154 1 4   0.019545  23.899786   0.000000  21.116050   # H_
 155 1 3   0.080684  20.691093   0.000000  20.691093   # C_3
 156 1 3  -0.031905  19.652907   0.000000  19.652907   # C_3
 157 1 4   0.067920  19.496910   0.000000  22.337128   # H_
 158 1 3   0.010783  18.275832   0.000000  19.956832   # C_3
 159 1 4   0.068809  22.337128   0.000000  19.496910   # H_
 160 1 3  -0.093367  19.956832   0.000000  18.275832   # C_3
 161 1 3  -0.017778  17.339851   0.000000  18.983197   # C_3
 162 1 5  -0.196313  17.694878   0.416081  21.323418   # N_3
 163 1 3   0.028283  18.983197   0.000000  17.339851   # C_3
 164 1 4   0.037458  20.847090   0.000000  18.006872   # H_
 165 1 3  -0.141234  17.657224   0.000000  17.657224   # C_3
 166 1 3   0.470968  16.600211   0.000000  16.600211   # C_3
 167 1 4   0.025422  16.444214   0.000000  19.227950   # H_
 168 1 4   0.010904  19.227950   0.000000  16.444214   # H_
 169 1 2  -0.671044  15.381822   0.000000  17.014410   # O_3
 170 1 2  -0.671687  17.014410   0.000000  15.381822   # O_3
 171 1 4   0.080721  17.234419   1.361207  21.302170   # H_
 172 1 3   0.072650  17.073581  26.251303  22.185704   # C_3
 173 1 3   0.058955  15.544005  26.460285  22.288446   # C_3
 174 1 4  -0.058040  15.328299   0.565892  22.707486   # H_
 175 1 3  -0.081527  14.811089  25.422637  23.141318   # C_3
 176 1 4   0.062756  15.076553  26.394928  21.291949   # H_
 177 1 3  -0.037582  15.328030  25.483422  24.570572   # C_3
 178 1 4   0.043865  15.045084  24.410810  22.709638   # H_
 179 1 4   0.067463  13.689257  25.524573  23.019480   # H_
 180 1 3   0.065484  17.553405  26.354315  23.671976   # C_3
 181 1 3  -0.096249  16.884771  25.490953  24.738403   # C_3
 182 1 4   0.067777  18.567385  25.936620  23.752933   # H_
 183 1 4   0.038749  17.301928  25.253730  21.775271   # H_
 184 1 4   0.120825  17.209675  25.850284  25.730058   # H_
 185 1 4   0.063164  17.236033  24.439319  24.602578   # H_
 186 1 4   0.060959  15.024375  24.535607  25.035604   # H_
 187 1 4   0.100227  14.865688  26.335756  25.116830   # H_
 188 1 4  -0.039767  17.581646   0.501879  24.074610   # H_
 189 1 2  -0.609499   3.566410   0.000000  24.962178   # O_3
 190 1 3   0.496643   3.152211   0.000000  23.743789   # C_3
 191 1 2  -0.676235   1.933822   0.000000  23.329590   # O_3
 192 1 3  -0.197933   4.209224   0.000000  22.686776   # C_3
 193 1 3   0.110869   5.535197   0.000000  23.004149   # C_3
 194 1 3   0.113269   3.891851   0.000000  21.360803   # C_3
 195 1 3  -0.169938   6.508832   0.000000  22.068168   # C_3
 196 1 4   0.011673   5.779950   0.000000  23.899786   # H_
 197 1 3  -0.174896   4.827832   0.000000  20.387168   # C_3
 198 1 4  -0.016793   2.996214   0.000000  21.116050   # H_
 199 1 3   0.078748   6.204907   0.000000  20.691093   # C_3
 200 1 3  -0.006007   7.243093   0.000000  19.652907   # C_3
 201 1 4   0.075695   7.399090   0.000000  22.337128   # H_
 202 1 3  -0.054325   8.620168   0.000000  19.956832   # C_3
 203 1 4   0.068109   4.558872   0.000000  19.496910   # H_
 204 1 3  -0.112467   6.939168   0.000000  18.275832   # C_3
 205 1 3   0.022737   9.556149   0.000000  18.983197   # C_3
 206 1 5  -0.045147   9.201122  26.479919  21.323418   # N_3
 207 1 3   0.053786   7.912803   0.000000  17.339851   # C_3
 208 1 4   0.045629   6.048910   0.000000  18.006872   # H_
 209 1 3  -0.162123   9.238776   0.000000  17.657224   # C_3
 210 1 3   0.480087  10.295789   0.000000  16.600211   # C_3
 211 1 4   0.015505  10.451786   0.000000  19.227950   # H_
 212 1 4   0.004358   7.668050   0.000000  16.444214   # H_
 213 1 2  -0.671573  11.514178   0.000000  17.014410   # O_3
 214 1 2  -0.672791   9.881590   0.000000  15.381822   # O_3
 215 1 4   0.115915   9.661581  25.534793  21.302170   # H_
 216 1 3   0.034837   9.822419   0.644697  22.185704   # C_3
 217 1 3  -0.263187  11.351995   0.435715  22.288446   # C_3
 218 1 4   0.173031  11.567701  26.330108  22.707486   # H_
 219 1 3   0.004655  12.084911   1.473363  23.141318   # C_3
 220 1 4   0.055292  11.819447   0.501072  21.291949   # H_
 221 1 3  -0.113059  11.567970   1.412578  24.570572   # C_3
 222 1 4   0.027024  11.850916   2.485190  22.709638   # H_
 223 1 4  -0.000077  13.206743   1.371427  23.019480   # H_
 224 1 3  -0.264606   9.342595   0.541685  23.671976   # C_3
 225 1 3   0.002280  10.011229   1.405047  24.738403   # C_3
 226 1 4   0.082731   8.328615   0.959649  23.752933   # H_
 227 1 4   0.024151   9.594072   1.642270  21.775271   # H_
 228 1 4   0.029136   9.686056   1.045716  25.730058   # H_
 229 1 4   0.037618   9.659967   2.456950  24.602578   # H_
 230 1 4   0.062961  11.871625   2.360662  25.035604   # H_
 231 1 4   0.029604  12.030312   0.560244  25.116830   # H_
 232 1 4   0.195080   9.314354  26.394121  24.074610   # H_
 233 1 2  -0.688307   1.933822   3.566410   0.000000   # O_3
 234 1 3   0.514055   3.152211   3.152211   0.000000   # C_3
 235 1 2  -0.688120   3.566410   1.933822   0.000000   # O_3
 236 1 3  -0.247036   4.209224   4.209224   0.000000   # C_3
 237 1 3   0.145711   3.891851   5.535197   0.000000   # C_3
 238 1 3   0.145138   5.535197   3.891851   0.000000   # C_3
 239 1 3  -0.222596   4.827832   6.508832   0.000000   # C_3
 240 1 4  -0.036985   2.996214   5.779950   0.000000   # H_
 241 1 3  -0.218028   6.508832   4.827832   0.000000   # C_3
 242 1 4  -0.034765   5.779950   2.996214   0.000000   # H_
 243 1 3   0.109578   6.204907   6.204907   0.000000   # C_3
 244 1 3  -0.057720   7.243093   7.243093   0.000000   # C_3
 245 1 4   0.080053   4.558872   7.399090   0.000000   # H_
 246 1 3   0.014769   6.939168   8.620168   0.000000   # C_3
 247 1 4   0.072458   7.399090   4.558872   0.000000   # H_
 248 1 3  -0.080393   8.620168   6.939168   0.000000   # C_3
 249 1 3  -0.030014   7.912803   9.556149   0.000000   # C_3
 250 1 5  -0.211494   5.541921   9.161047   0.309304   # N_3
 251 1 3   0.013861   9.556149   7.912803   0.000000   # C_3
 252 1 4   0.022368   8.889128   6.048910   0.000000   # H_
 253 1 3  -0.135070   9.238776   9.238776   0.000000   # C_3
 254 1 3   0.467732  10.295789  10.295789   0.000000   # C_3
 255 1 4   0.026900   7.668050  10.451786   0.000000   # H_
 256 1 4   0.011213  10.451786   7.668050   0.000000   # H_
 257 1 2  -0.673608   9.881590  11.514178   0.000000   # O_3
 258 1 2  -0.673816  11.514178   9.881590   0.000000   # O_3
 259 1 4   0.064178   5.628257   9.819999   1.118336   # H_
 260 1 3   0.114044   4.984636   9.859536  26.034790   # C_3
 261 1 3   0.056717   3.829990  10.795248  26.415368   # C_3
 262 1 4   0.053157   2.981960  10.207032  26.834946   # H_
 263 1 3  -0.094585   3.373565  11.609120  25.167932   # C_3
 264 1 4  -0.085640   4.201155  11.514716   0.281601   # H_
 265 1 3  -0.057094   2.920368  10.685243  24.015707   # C_3
 266 1 4   0.059005   4.192548  12.286631  24.843835   # H_
 267 1 4   0.055026   2.511548  12.243059  25.469974   # H_
 268 1 3  -0.104314   4.497011   8.907686  24.888214   # C_3
 269 1 3  -0.052842   4.061834   9.745766  23.639970   # C_3
 270 1 4   0.085571   5.328367   8.228024  24.560620   # H_
 271 1 4   0.047030   5.759240  10.517681  25.597192   # H_
 272 1 4   0.038198   3.711648   9.065566  22.837932   # H_
 273 1 4   0.040222   4.914706  10.358725  23.257509   # H_
 274 1 4   0.028800   2.663511  11.307885  23.136208   # H_
 275 1 4   0.035140   2.008862  10.136296  24.337652   # H_
 276 1 4   0.083037   3.623698   8.303871  25.239206   # H_
 277 1 2  -0.677934   1.933822  23.329590   0.000000   # O_3
 278 1 3   0.497139   3.152211  23.743789   0.000000   # C_3
 279 1 2  -0.613674   3.566410  24.962178   0.000000   # O_3
 280 1 3  -0.200430   4.209224  22.686776   0.000000   # C_3
 281 1 3   0.115872   3.891851  21.360803   0.000000   # C_3
 282 1 3   0.111466   5.535197  23.004149   0.000000   # C_3
 283 1 3  -0.179449   4.827832  20.387168   0.000000   # C_3
 284 1 4  -0.017853   2.996214  21.116050   0.000000   # H_
 285 1 3  -0.168225   6.508832  22.068168   0.000000   # C_3
 286 1 4   0.012178   5.779950  23.899786   0.000000   # H_
 287 1 3   0.076824   6.204907  20.691093   0.000000   # C_3
 288 1 3  -0.000113   7.243093  19.652907   0.000000   # C_3
 289 1 4   0.074958   4.558872  19.496910   0.000000   # H_
 290 1 3  -0.067693   6.939168  18.275832   0.000000   # C_3
 291 1 4   0.075262   7.399090  22.337128   0.000000   # H_
 292 1 3  -0.118881   8.620168  19.956832   0.000000   # C_3
 293 1 3   0.030833   7.912803  17.339851   0.000000   # C_3
 294 1 5  -0.032919   5.541921  17.734953  26.586696   # N_3
 295 1 3   0.060504   9.556149  18.983197   0.000000   # C_3
 296 1 4   0.051698   8.889128  20.847090   0.000000   # H_
 297 1 3  -0.168708   9.238776  17.657224   0.000000   # C_3
 298 1 3   0.482101  10.295789  16.600211   0.000000   # C_3
 299 1 4   0.006367   7.668050  16.444214   0.000000   # H_
 300 1 4   0.003572  10.451786  19.227950   0.000000   # H_
 301 1 2  -0.675447   9.881590  15.381822   0.000000   # O_3
 302 1 2  -0.674299  11.514178  17.014410   0.000000   # O_3
 303 1 4   0.114696   5.628257  17.076001  25.777664   # H_
 304 1 3  -0.011254   4.984636  17.036464   0.861210   # C_3
 305 1 3  -0.253026   3.829990  16.100752   0.480632   # C_3
 306 1 4   0.030751   2.981960  16.688968   0.061054   # H_
 307 1 3  -0.007431   3.373565  15.286880   1.728068   # C_3
 308 1 4   0.170118   4.201155  15.381284  26.614399   # H_
 309 1 3  -0.080138   2.920368  16.210757   2.880293   # C_3
 310 1 4   0.005565   4.192548  14.609369   2.052165   # H_
 311 1 4  -0.024487   2.511548  14.652941   1.426026   # H_
 312 1 3  -0.077343   4.497011  17.988314   2.007786   # C_3
 313 1 3  -0.051181   4.061834  17.150234   3.256030   # C_3
 314 1 4   0.045874   5.328367  18.667707   2.335380   # H_
 315 1 4   0.018588   5.759240  16.378319   1.298808   # H_
 316 1 4   0.032965   3.711648  17.830434   4.058337   # H_
 317 1 4   0.036146   4.914706  16.537275   3.638491   # H_
 318 1 4   0.024287   2.663511  15.588115   3.759792   # H_
 319 1 4   0.016980   2.008862  16.759704   2.558348   # H_
 320 1 4   0.034568   3.623698  18.592129   1.656794   # H_
 321 1 2  -0.604032  24.962178  23.329590   0.000000   # O_3
 322 1 3   0.484425  23.743789  23.743789   0.000000   # C_3
 323 1 2  -0.607877  23.329590  24.962178   0.000000   # O_3
 324 1 3  -0.173686  22.686776  22.686776   0.000000   # C_3
 325 1 3   0.098818  23.004149  21.360803   0.000000   # C_3
 326 1 3   0.098876  21.360803  23.004149   0.000000   # C_3
 327 1 3  -0.168066  22.068168  20.387168   0.000000   # C_3
 328 1 4   0.016346  23.899786  21.116050   0.000000   # H_
 329 1 3  -0.165670  20.387168  22.068168   0.000000   # C_3
 330 1 4   0.014409  21.116050  23.899786   0.000000   # H_
 331 1 3   0.082569  20.691093  20.691093   0.000000   # C_3
 332 1 3  -0.037812  19.652907  19.652907   0.000000   # C_3
 333 1 4   0.074126  22.337128  19.496910   0.000000   # H_
 334 1 3   0.010238  19.956832  18.275832   0.000000   # C_3
 335 1 4   0.067267  19.496910  22.337128   0.000000   # H_
 336 1 3  -0.091620  18.275832  19.956832   0.000000   # C_3
 337 1 3  -0.023197  18.983197  17.339851   0.000000   # C_3
 338 1 5  -0.206698  21.354079  17.734953   0.309304   # N_3
 339 1 3   0.024608  17.339851  18.983197   0.000000   # C_3
 340 1 4   0.033203  18.006872  20.847090   0.000000   # H_
 341 1 3  -0.139543  17.657224  17.657224   0.000000   # C_3
 342 1 3   0.469930  16.600211  16.600211   0.000000   # C_3
 343 1 4   0.026161  19.227950  16.444214   0.000000   # H_
 344 1 4   0.010403  16.444214  19.227950   0.000000   # H_
 345 1 2  -0.673190  17.014410  15.381822   0.000000   # O_3
 346 1 2  -0.673268  15.381822  17.014410   0.000000   # O_3
 347 1 4   0.074744  21.267743  17.076001   1.118336   # H_
 348 1 3   0.119776  21.911364  17.036464  26.034790   # C_3
 349 1 3   0.047575  23.066010  16.100752  26.415368   # C_3
 350 1 4   0.088243  23.914040  16.688968  26.834946   # H_
 351 1 3  -0.085202  23.522435  15.286880  25.167932   # C_3
 352 1 4  -0.068403  22.694845  15.381284   0.281601   # H_
 353 1 3  -0.064774  23.975632  16.210757  24.015707   # C_3
 354 1 4   0.065075  22.703452  14.609369  24.843835   # H_
 355 1 4   0.092826  24.384452  14.652941  25.469974   # H_
 356 1 3  -0.109162  22.398989  17.988314  24.888214   # C_3
 357 1 3  -0.044181  22.834166  17.150234  23.639970   # C_3
 358 1 4   0.090324  21.567633  18.667707  24.560620   # H_
 359 1 4   0.045099  21.136760  16.378319  25.597192   # H_
 360 1 4   0.059241  23.184621  17.830434  22.837932   # H_
 361 1 4   0.042449  21.981294  16.537275  23.257509   # H_
 362 1 4   0.066052  24.232489  15.588115  23.136208   # H_
 363 1 4   0.085586  24.887138  16.759704  24.337652   # H_
 364 1 4   0.103788  23.272302  18.592129  25.239206   # H_
 365 1 2  -0.609035  24.962178   3.566410   0.000000   # O_3
 366 1 3   0.496101  23.743789   3.152211   0.000000   # C_3
 367 1 2  -0.677343  23.329590   1.933822   0.000000   # O_3
 368 1 3  -0.196647  22.686776   4.209224   0.000000   # C_3
 369 1 3   0.110739  23.004149   5.535197   0.000000   # C_3
 370 1 3   0.111595  21.360803   3.891851   0.000000   # C_3
 371 1 3  -0.167776  22.068168   6.508832   0.000000   # C_3
 372 1 4   0.017021  23.899786   5.779950   0.000000   # H_
 373 1 3  -0.172727  20.387168   4.827832   0.000000   # C_3
 374 1 4  -0.016588  21.116050   2.996214   0.000000   # H_
 375 1 3   0.075501  20.691093   6.204907   0.000000   # C_3
 376 1 3  -0.000359  19.652907   7.243093   0.000000   # C_3
 377 1 4   0.081314  22.337128   7.399090   0.000000   # H_
 378 1 3  -0.065571  19.956832   8.620168   0.000000   # C_3
 379 1 4   0.066901  19.496910   4.558872   0.000000   # H_
 380 1 3  -0.117863  18.275832   6.939168   0.000000   # C_3
 381 1 3   0.029742  18.983197   9.556149   0.000000   # C_3
 382 1 5  -0.032162  21.354079   9.161047  26.586696   # N_3
 383 1 3   0.058901  17.339851   7.912803   0.000000   # C_3
 384 1 4   0.046999  18.006872   6.048910   0.000000   # H_
 385 1 3  -0.167616  17.657224   9.238776   0.000000   # C_3
 386 1 3   0.481840  16.600211  10.295789   0.000000   # C_3
 387 1 4   0.007783  19.227950  10.451786   0.000000   # H_
 388 1 4   0.002059  16.444214   7.668050   0.000000   # H_
 389 1 2  -0.674810  17.014410  11.514178   0.000000   # O_3
 390 1 2  -0.674844  15.381822   9.881590   0.000000   # O_3
 391 1 4   0.122407  21.267743   9.819999  25.777664   # H_
 392 1 3  -0.003970  21.911364   9.859536   0.861210   # C_3
 393 1 3  -0.256359  23.066010  10.795248   0.480632   # C_3
 394 1 4   0.065818  23.914040  10.207032   0.061054   # H_
 395 1 3   0.000414  23.522435  11.609120   1.728068   # C_3
 396 1 4   0.182328  22.694845  11.514716  26.614399   # H_
 397 1 3  -0.087277  23.975632  10.685243   2.880293   # C_3
 398 1 4   0.012932  22.703452  12.286631   2.052165   # H_
 399 1 4   0.015256  24.384452  12.243059   1.426026   # H_
 400 1 3  -0.082449  22.398989   8.907686   2.007786   # C_3
 401 1 3  -0.042426  22.834166   9.745766   3.256030   # C_3
 402 1 4   0.049962  21.567633   8.228024   2.335380   # H_
 403 1 4   0.017345  21.136760  10.517681   1.298808   # H_
 404 1 4   0.053166  23.184621   9.065566   4.058337   # H_
 405 1 4   0.038489  21.981294  10.358725   3.638491   # H_
 406 1 4   0.062210  24.232489  11.307885   3.759792   # H_
 407 1 4   0.068100  24.887138  10.136296   2.558348   # H_
 408 1 4   0.055286  23.272302   8.303871   1.656794   # H_
 409 1 2  -0.688826   0.000000   1.933822   3.566410   # O_3
 410 1 3   0.513983   0.000000   3.152211   3.152211   # C_3
 411 1 2  -0.688424   0.000000   3.566410   1.933822   # O_3
 412 1 3  -0.246796   0.000000   4.209224   4.209224   # C_3
 413 1 3   0.145147   0.000000   3.891851   5.535197   # C_3
 414 1 3   0.146154   0.000000   5.535197   3.891851   # C_3
 415 1 3  -0.221716   0.000000   4.827832   6.508832   # C_3
 416 1 4  -0.038841   0.000000   2.996214   5.779950   # H_
 417 1 3  -0.216871   0.000000   6.508832   4.827832   # C_3
 418 1 4  -0.033960   0.000000   5.779950   2.996214   # H_
 419 1 3   0.113442   0.000000   6.204907   6.204907   # C_3
 420 1 3  -0.056333   0.000000   7.243093   7.243093   # C_3
 421 1 4   0.077368   0.000000   4.558872   7.399090   # H_
 422 1 3   0.019984   0.000000   6.939168   8.620168   # C_3
 423 1 4   0.075483   0.000000   7.399090   4.558872   # H_
 424 1 3  -0.074240   0.000000   8.620168   6.939168   # C_3
 425 1 3  -0.030399   0.000000   7.912803   9.556149   # C_3
 426 1 5  -0.211215   0.221085   5.541383   9.182563   # N_3
 427 1 3   0.015090   0.000000   9.556149   7.912803   # C_3
 428 1 4   0.025779   0.000000   8.889128   6.048910   # H_
 429 1 3  -0.132006   0.000000   9.238776   9.238776   # C_3
 430 1 3   0.467632   0.000000  10.295789  10.295789   # C_3
 431 1 4   0.026116   0.000000   7.668050  10.451786   # H_
 432 1 4   0.016295   0.000000  10.451786   7.668050   # H_
 433 1 2  -0.673444   0.000000   9.881590  11.514178   # O_3
 434 1 2  -0.671010   0.000000  11.514178   9.881590   # O_3
 435 1 4   0.064350   1.038186   5.512873   9.833178   # H_
 436 1 3   0.109210  25.831994   4.931651   9.681753   # C_3
 437 1 3   0.056954  25.938771   4.846928  11.189274   # C_3
 438 1 4  -0.084456   0.022593   4.438378  11.467110   # H_
 439 1 3  -0.083214  25.018659   3.933002  12.006105   # C_3
 440 1 4   0.057468  25.840870   5.861445  11.606700   # H_
 441 1 3  -0.056429  24.691066   2.558348  11.367863   # C_3
 442 1 4   0.043958  24.084292   4.490287  12.043491   # H_
 443 1 4   0.061323  25.387403   3.811970  13.073877   # H_
 444 1 3  -0.109666  25.491222   3.524452   9.081703   # C_3
 445 1 3  -0.051623  24.451423   2.576368   9.822150   # C_3
 446 1 4   0.083953  25.073527   3.694166   8.072028   # H_
 447 1 4   0.035911  24.999832   5.613464   9.416828   # H_
 448 1 4   0.033457  24.484505   1.555665   9.382132   # H_
 449 1 4   0.034408  23.476443   2.980884   9.569597   # H_
 450 1 4   0.023304  23.827973   2.046517  11.875391   # H_
 451 1 4   0.050786  25.604185   1.973897  11.571197   # H_
 452 1 4   0.098170  26.448720   2.961250   8.978154   # H_
 453 1 2  -0.677934   0.000000   1.933822  23.329590   # O_3
 454 1 3   0.496368   0.000000   3.152211  23.743789   # C_3
 455 1 2  -0.610920   0.000000   3.566410  24.962178   # O_3
 456 1 3  -0.198468   0.000000   4.209224  22.686776   # C_3
 457 1 3   0.114352   0.000000   3.891851  21.360803   # C_3
 458 1 3   0.110988   0.000000   5.535197  23.004149   # C_3
 459 1 3  -0.177510   0.000000   4.827832  20.387168   # C_3
 460 1 4  -0.017170   0.000000   2.996214  21.116050   # H_
 461 1 3  -0.165809   0.000000   6.508832  22.068168   # C_3
 462 1 4   0.016211   0.000000   5.779950  23.899786   # H_
 463 1 3   0.077100   0.000000   6.204907  20.691093   # C_3
 464 1 3   0.002223   0.000000   7.243093  19.652907   # C_3
 465 1 4   0.073482   0.000000   4.558872  19.496910   # H_
 466 1 3  -0.068348   0.000000   6.939168  18.275832   # C_3
 467 1 4   0.079148   0.000000   7.399090  22.337128   # H_
 468 1 3  -0.117528   0.000000   8.620168  19.956832   # C_3
 469 1 3   0.032050   0.000000   7.912803  17.339851   # C_3
 470 1 5  -0.031918  26.674915   5.541383  17.713437   # N_3
 471 1 3   0.061748   0.000000   9.556149  18.983197   # C_3
 472 1 4   0.055459   0.000000   8.889128  20.847090   # H_
 473 1 3  -0.167443   0.000000   9.238776  17.657224   # C_3
 474 1 3   0.481889   0.000000  10.295789  16.600211   # C_3
 475 1 4   0.006890   0.000000   7.668050  16.444214   # H_
 476 1 4   0.007174   0.000000  10.451786  19.227950   # H_
 477 1 2  -0.675002   0.000000   9.881590  15.381822   # O_3
 478 1 2  -0.671941   0.000000  11.514178  17.014410   # O_3
 479 1 4   0.111715  25.857814   5.512873  17.062822   # H_
 480 1 3  -0.009220   1.064006   4.931651  17.214247   # C_3
 481 1 3  -0.258287   0.957229   4.846928  15.706726   # C_3
 482 1 4   0.179724  26.873407   4.438378  15.428890   # H_
 483 1 3  -0.021591   1.877341   3.933002  14.889895   # C_3
 484 1 4   0.060230   1.054861   5.861445  15.289300   # H_
 485 1 3  -0.074802   2.204665   2.558348  15.528137   # C_3
 486 1 4   0.029715   2.811708   4.490287  14.852509   # H_
 487 1 4  -0.013545   1.508597   3.811970  13.822123   # H_
 488 1 3  -0.085257   1.404778   3.524452  17.814297   # C_3