 (written by mofun)

1248 atoms
0 bonds
0 angles
0 dihedrals
0 impropers

5 atom types
   0.000000  20.700400 xlo xhi
   0.000000  20.700400 ylo yhi
   0.000000  20.700400 zlo zhi

Masses

 1 91.2240   # Zr3+4
 2 15.9994   # O_3
 3 12.0107   # C_3
 4 1.0079   # H_
 5 14.0067   # N_3

Pair Coeffs

 1   0.069000   2.783168 # Zr3+4
 2   0.060000   3.118146 # O_3
 3   0.105000   3.430851 # C_3
 4   0.044000   2.571134 # H_
 5   0.069000   3.260689 # N_3

Atoms

 1 1 1   3.171410   2.481771   0.000000   0.000000   # Zr3+4
 2 1 1   3.189690   2.481771  10.350200  10.350200   # Zr3+4
 3 1 1   3.178040  12.831971   0.000000  10.350200   # Zr3+4
 4 1 1   3.182470  12.831971  10.350200   0.000000   # Zr3+4
 5 1 1   3.169960  18.218629   0.000000   0.000000   # Zr3+4
 6 1 1   3.190910  18.218629  10.350200  10.350200   # Zr3+4
 7 1 1   3.180420   7.868429   0.000000  10.350200   # Zr3+4
 8 1 1   3.180580   7.868429  10.350200   0.000000   # Zr3+4
 9 1 1   3.170750   0.000000   2.481771   0.000000   # Zr3+4
 10 1 1   3.145860   0.000000  12.831971  10.350200   # Zr3+4
 11 1 1   3.189960  10.350200   2.481771  10.350200   # Zr3+4
 12 1 1   3.182210  10.350200  12.831971   0.000000   # Zr3+4
 13 1 1   3.169590   0.000000  18.218629   0.000000   # Zr3+4
 14 1 1   3.212070   0.000000   7.868429  10.350200   # Zr3+4
 15 1 1   3.190660  10.350200  18.218629  10.350200   # Zr3+4
 16 1 1   3.180520  10.350200   7.868429   0.000000   # Zr3+4
 17 1 1   3.200740   0.000000   0.000000   2.481771   # Zr3+4
 18 1 1   3.177690   0.000000  10.350200  12.831971   # Zr3+4
 19 1 1   3.146310  10.350200   0.000000  12.831971   # Zr3+4
 20 1 1   3.190960  10.350200  10.350200   2.481771   # Zr3+4
 21 1 1   3.136560   0.000000   0.000000  18.218629   # Zr3+4
 22 1 1   3.180390   0.000000  10.350200   7.868429   # Zr3+4
 23 1 1   3.212670  10.350200   0.000000   7.868429   # Zr3+4
 24 1 1   3.191150  10.350200  10.350200  18.218629   # Zr3+4
 25 1 2  -1.317880   1.161292   9.188908   9.188908   # O_3
 26 1 2  -1.239790  11.511492  19.539108   9.188908   # O_3
 27 1 2  -1.353520  11.511492   9.188908  19.539108   # O_3
 28 1 2  -1.316370   9.188908   1.161292   9.188908   # O_3
 29 1 2  -1.353270   9.188908  11.511492  19.539108   # O_3
 30 1 2  -1.201560  19.539108  19.539108   1.161292   # O_3
 31 1 2  -1.232920  19.539108   9.188908  11.511492   # O_3
 32 1 2  -1.359180   1.161292   1.161292   1.161292   # O_3
 33 1 2  -1.415170  11.511492  11.511492   1.161292   # O_3
 34 1 2  -1.365860  19.539108   1.161292   1.161292   # O_3
 35 1 2  -1.459140  19.539108  11.511492  11.511492   # O_3
 36 1 2  -1.539880   9.188908   1.161292  11.511492   # O_3
 37 1 2  -1.423500   9.188908  11.511492   1.161292   # O_3
 38 1 2  -1.367140   1.161292  19.539108   1.161292   # O_3
 39 1 2  -1.412750   1.161292   9.188908  11.511492   # O_3
 40 1 2  -1.463960  11.511492  19.539108  11.511492   # O_3
 41 1 2  -1.423200  11.511492   9.188908   1.161292   # O_3
 42 1 2  -1.347330  19.539108  19.539108  19.539108   # O_3
 43 1 2  -1.315390  19.539108   9.188908   9.188908   # O_3
 44 1 2  -1.320390   9.188908  19.539108   9.188908   # O_3
 45 1 2  -1.354480   9.188908   9.188908  19.539108   # O_3
 46 1 2  -1.504810   1.161292   1.161292  19.539108   # O_3
 47 1 2  -1.538440   1.161292  11.511492   9.188908   # O_3
 48 1 2  -1.408180  11.511492   1.161292   9.188908   # O_3
 49 1 3   0.540157   3.179581   0.000000  17.520819   # C_3
 50 1 2  -0.766797   3.528590   0.000000  18.727859   # O_3
 51 1 2  -0.811358   1.972541   0.000000  17.171810   # O_3
 52 1 3  -0.213449   4.243582   0.000000  16.456818   # C_3
 53 1 3  -0.011188   3.816533   0.000000  15.162836   # C_3
 54 1 4  -0.014800   2.700574   0.000000  14.930785   # H_
 55 1 5  -0.101860   4.557193  19.844852  12.987845   # N_3
 56 1 3  -0.006533   4.812636   0.000000  14.167768   # C_3
 57 1 3  -0.181404   6.106618   0.000000  14.593782   # C_3
 58 1 3  -0.044153   6.532632   0.000000  15.887764   # C_3
 59 1 3   0.066876   5.537564   0.000000  16.883867   # C_3
 60 1 5  -0.190193   5.941636   0.596793  18.169983   # N_3
 61 1 4   0.008830   7.648591   0.000000  16.119815   # H_
 62 1 2  -0.798724   8.377452   0.000000  13.878790   # O_3
 63 1 3   0.533440   7.170619   0.000000  13.529781   # C_3
 64 1 2  -0.803644   6.821610   0.000000  12.322741   # O_3
 65 1 3  -0.151664   5.422263  18.623943  12.952240   # C_3
 66 1 3  -0.253479   7.821232  18.321096  14.425488   # C_3
 67 1 3   0.232484   6.463493  17.979746  14.025556   # C_3
 68 1 4   0.091893   8.300860  17.473829  14.877791   # H_
 69 1 4   0.142717   8.053077  19.045817  15.138617   # H_
 70 1 4   0.065957   4.809738  17.971259  12.557898   # H_
 71 1 4   0.079211   6.104548  18.747938  12.249255   # H_
 72 1 3  -0.360888   6.900478  16.671067  13.330851   # C_3
 73 1 3  -0.333253   5.800666  17.856993  15.366735   # C_3
 74 1 3  -0.136510   5.494921   1.946045  18.379264   # C_3
 75 1 3  -0.299088   5.679983   4.245652  17.462029   # C_3
 76 1 4   0.117786   5.534459   4.701268  18.408452   # H_
 77 1 3   0.230852   4.777031   2.993071  17.372604   # C_3
 78 1 4   0.080384   6.781865   4.012773  17.445883   # H_
 79 1 4   0.072688   6.375516   2.408699  18.722063   # H_
 80 1 4   0.109801   4.814706   1.869660  19.123444   # H_
 81 1 3  -0.296327   3.291364   3.253482  17.783507   # C_3
 82 1 3  -0.372488   4.546222   2.649030  15.930407   # C_3
 83 1 4   0.139193   5.014879  18.547765  15.332165   # H_
 84 1 4   0.112417   6.415468  18.110780  16.232219   # H_
 85 1 4   0.086390   5.374859  16.902291  15.521574   # H_
 86 1 4   0.092049   7.951852  16.516642  12.995297   # H_
 87 1 4   0.098717   6.620609  15.864373  13.912946   # H_
 88 1 4   0.116458   6.355023  16.579985  12.515255   # H_
 89 1 4   0.091084   2.660622   3.651965  16.974949   # H_
 90 1 4   0.111520   2.805318   2.351979  18.127133   # H_
 91 1 4   0.127308   3.205871   3.963092  18.547558   # H_
 92 1 4   0.110524   4.692574   3.441027  15.301529   # H_
 93 1 4   0.113335   3.574338   2.273318  15.620729   # H_
 94 1 4   0.142902   5.258523   2.017461  15.641222   # H_
 95 1 4   0.172798   5.900028  20.644509  18.992203   # H_
 96 1 4   0.130462   4.728799  20.459033  12.237869   # H_
 97 1 4   0.074092   5.441928   4.924418  16.668790   # H_
 98 1 4  -0.000252   8.263186  18.573641  13.441184   # H_
 99 1 3   0.549082   3.179581  10.350200   7.170619   # C_3
 100 1 2  -0.674147   3.528590  10.350200   8.377659   # O_3
 101 1 2  -0.680268   1.972541  10.350200   6.821610   # O_3
 102 1 3  -0.180080   4.243582  10.350200   6.106618   # C_3
 103 1 3  -0.019216   3.816533  10.350200   4.812636   # C_3
 104 1 4   0.025259   2.700574  10.350200   4.580585   # H_
 105 1 5  -0.137933   4.564024   9.465051   2.674906   # N_3
 106 1 3   0.080828   4.812636  10.350200   3.817568   # C_3
 107 1 3  -0.175863   6.106618  10.350200   4.243582   # C_3
 108 1 3  -0.016040   6.532632  10.350200   5.537564   # C_3
 109 1 3   0.085837   5.537564  10.350200   6.533667   # C_3
 110 1 5  -0.135246   5.925489  10.890066   7.834687   # N_3
 111 1 4   0.031602   7.648591  10.350200   5.769615   # H_
 112 1 2  -0.747688   8.377452  10.350200   3.528590   # O_3
 113 1 3   0.548092   7.170619  10.350200   3.179581   # C_3
 114 1 2  -0.755848   6.821610  10.350200   1.972541   # O_3
 115 1 3  -0.135083   5.494507   8.305000   2.648616   # C_3
 116 1 3  -0.253394   7.902585   7.988491   4.256209   # C_3
 117 1 3   0.199543   6.558508   7.614849   3.839303   # C_3
 118 1 4   0.096452   8.351783   7.198150   4.739771   # H_
 119 1 4   0.102734   8.116627   8.725633   4.946361   # H_
 120 1 4   0.066375   4.924832   7.625613   2.175612   # H_
 121 1 4   0.046214   6.221919   8.404155   1.971299   # H_
 122 1 3  -0.333083   6.964650   6.270358   3.211253   # C_3
 123 1 3  -0.323642   5.983865   7.575725   5.182966   # C_3
 124 1 3  -0.145825   5.483329  12.276786   8.059287   # C_3
 125 1 3  -0.268123   5.453313  14.682173   7.300617   # C_3
 126 1 4   0.079747   6.522075  14.567906   7.553990   # H_
 127 1 3   0.191232   4.685950  13.316981   7.083884   # C_3
 128 1 4   0.069764   5.419572  15.180431   6.356472   # H_
 129 1 4   0.065893   6.377586  12.723915   8.354681   # H_
 130 1 4   0.092054   4.876807  12.245736   8.823753   # H_
 131 1 3  -0.251767   3.177718  13.563937   7.447176   # C_3
 132 1 3  -0.353090   4.564024  13.038561   5.579172   # C_3
 133 1 4   0.087392   6.511725   7.853939   6.110965   # H_
 134 1 4   0.091688   5.540876   6.686643   5.355814   # H_
 135 1 4   0.107183   5.175100   8.229237   5.081741   # H_
 136 1 4   0.089756   8.003810   5.924040   3.148117   # H_
 137 1 4   0.085947   6.359784   5.529698   3.677219   # H_
 138 1 4   0.107014   6.720592   6.323351   2.248477   # H_
 139 1 4   0.086439   2.471421  13.595816   6.599702   # H_
 140 1 4   0.084534   2.856241  12.656432   7.985593   # H_
 141 1 4   0.092249   3.006319  14.456745   8.025752   # H_
 142 1 4   0.109550   4.783862  13.853743   5.018812   # H_
 143 1 4   0.109293   3.625882  12.671336   5.191246   # H_
 144 1 4   0.132489   5.315863  12.388775   5.404253   # H_
 145 1 4   0.064535   5.744775  10.222893   8.614678   # H_
 146 1 4   0.058149   4.537735  10.013818   1.784374   # H_
 147 1 4   0.093057   5.057522  15.367149   8.013332   # H_
 148 1 4  -0.006393   8.270017   8.185973   3.228848   # H_
 149 1 3   0.538560  13.529781   0.000000   7.170619   # C_3
 150 1 2  -0.731556  13.878790   0.000000   8.377659   # O_3
 151 1 2  -0.705001  12.322741   0.000000   6.821610   # O_3
 152 1 3  -0.222793  14.593782   0.000000   6.106618   # C_3
 153 1 3  -0.004627  14.166733   0.000000   4.812636   # C_3
 154 1 4   0.000502  13.050774   0.000000   4.580585   # H_
 155 1 5  -0.019556  14.786503  20.158257   2.503920   # N_3
 156 1 3  -0.008660  15.162629   0.000000   3.817568   # C_3
 157 1 3  -0.157002  16.456611   0.000000   4.243582   # C_3
 158 1 3  -0.047851  16.882832   0.000000   5.537564   # C_3
 159 1 3   0.082819  15.887764   0.000000   6.533667   # C_3
 160 1 5  -0.196359  16.351039   0.390617   7.877951   # N_3
 161 1 4   0.028536  17.998791   0.000000   5.769615   # H_
 162 1 2  -0.661065  18.727652   0.000000   3.528590   # O_3
 163 1 3   0.514926  17.520612   0.000000   3.179581   # C_3
 164 1 2  -0.716073  17.171603   0.000000   1.972541   # O_3
 165 1 3  -0.140873  15.207135  18.747524   2.348667   # C_3
 166 1 3  -0.322482  17.506949  17.509433   2.923310   # C_3
 167 1 3   0.251840  15.963941  17.677935   3.286188   # C_3
 168 1 4   0.126212  17.673381  16.824043   2.189895   # H_
 169 1 4   0.123812  18.137069  17.166014   3.733524   # H_
 170 1 4   0.065679  14.273340  18.292736   2.058241   # H_
 171 1 4   0.101707  15.814692  18.810039   1.536177   # H_
 172 1 3  -0.331191  15.189747  16.352488   3.127623   # C_3
 173 1 3  -0.385563  16.088558  17.971052   4.752398   # C_3
 174 1 3  -0.145692  16.047778   1.799693   8.054526   # C_3
 175 1 3  -0.370052  16.436946   4.060797   7.186558   # C_3
 176 1 4   0.128077  16.204480   4.424503   8.100067   # H_
 177 1 3   0.239537  15.659232   2.793726   6.892405   # C_3
 178 1 4   0.113444  17.473208   3.820259   7.121766   # H_
 179 1 4   0.063383  16.865858   1.990343   8.575969   # H_
 180 1 4   0.072406  15.258679   1.813769   8.747782   # H_
 181 1 3  -0.308703  14.171908   3.069662   7.085540   # C_3
 182 1 3  -0.297139  16.038256   2.642199   5.426610   # C_3
 183 1 4   0.141250  17.079693  18.305157   5.167441   # H_
 184 1 4   0.121336  15.887350  17.168084   5.309446   # H_
 185 1 4   0.173366  15.366321  18.637191   4.977411   # H_
 186 1 4   0.081563  15.389505  15.589885   3.854828   # H_
 187 1 4   0.093034  14.106081  16.493251   3.058070   # H_
 188 1 4   0.116967  15.479759  15.942827   2.226742   # H_
 189 1 4   0.094234  13.594574   3.155155   6.169754   # H_
 190 1 4   0.107256  13.686069   2.271041   7.607811   # H_
 191 1 4   0.099909  13.996575   3.906165   7.720007   # H_
 192 1 4   0.085362  16.008447   3.599386   4.944912   # H_
 193 1 4   0.110973  15.337547   2.119721   4.849690   # H_
 194 1 4   0.097356  17.090457   2.301884   5.366165   # H_
 195 1 4   0.160079  16.028734  20.494017   8.679471   # H_
 196 1 4  -0.023590  14.935960   0.091910   1.697640   # H_
 197 1 4   0.108506  16.359112   4.851553   6.501375   # H_
 198 1 4   0.139819  17.974157  18.437846   2.583617   # H_
 199 1 3   0.533910  13.529781  10.350200  17.520819   # C_3
 200 1 2  -0.713408  13.878790  10.350200  18.727859   # O_3
 201 1 2  -0.743545  12.322741  10.350200  17.171810   # O_3
 202 1 3  -0.169746  14.593782  10.350200  16.456818   # C_3
 203 1 3  -0.021101  14.166733  10.350200  15.162836   # C_3
 204 1 4   0.032956  13.050774  10.350200  14.930785   # H_
 205 1 5  -0.140388  14.756073  10.225791  12.778978   # N_3
 206 1 3   0.101394  15.162629  10.350200  14.167768   # C_3
 207 1 3  -0.175161  16.456611  10.350200  14.593782   # C_3
 208 1 3  -0.015867  16.882832  10.350200  15.887764   # C_3
 209 1 3   0.083724  15.887764  10.350200  16.883867   # C_3
 210 1 5  -0.133033  16.145070  11.290619  18.049507   # N_3
 211 1 4   0.048763  17.998791  10.350200  16.119815   # H_
 212 1 2  -0.630296  18.727652  10.350200  13.878790   # O_3
 213 1 3   0.536480  17.520612  10.350200  13.529781   # C_3
 214 1 2  -0.666127  17.171603  10.350200  12.322741   # O_3
 215 1 3  -0.106368  14.947966   8.792288  12.515048   # C_3
 216 1 3  -0.266830  17.054232   7.242449  13.147238   # C_3
 217 1 3   0.179873  15.593818   7.619817  13.514877   # C_3
 218 1 4   0.100801  17.075760   6.428302  12.527054   # H_
 219 1 4   0.094706  17.782058   6.916211  13.949586   # H_
 220 1 4   0.045823  13.986846   8.467706  12.144511   # H_
 221 1 4   0.065938  15.550554   8.869086  11.699038   # H_
 222 1 3  -0.272990  14.554244   6.479432  13.429177   # C_3
 223 1 3  -0.295957  15.878035   7.722491  15.031181   # C_3
 224 1 3  -0.134183  15.153935  12.422310  18.063790   # C_3
 225 1 3  -0.323709  13.715671  14.408927  17.488526   # C_3
 226 1 4   0.109848  13.987467  14.397542  18.493323   # H_
 227 1 3   0.172931  14.220554  13.080790  16.799203   # C_3
 228 1 4   0.089966  14.196334  15.165941  17.042846   # H_
 229 1 4   0.081141  15.732925  13.128815  18.532240   # H_
 230 1 4   0.070886  14.430663  12.304525  18.743177   # H_
 231 1 3  -0.240910  12.861573  12.702800  16.403825   # C_3
 232 1 3  -0.287704  14.928300  13.122191  15.435874   # C_3
 233 1 4   0.104732  16.829425   8.141467  15.375429   # H_
 234 1 4   0.085132  15.869548   6.778553  15.482864   # H_
 235 1 4   0.110239  15.086038   8.234826  15.404824   # H_
 236 1 4   0.062701  14.697698   5.708342  14.177083   # H_
 237 1 4   0.072170  13.549654   6.919937  13.538890   # H_
 238 1 4   0.090472  14.623591   5.916174  12.554172   # H_
 239 1 4   0.097429  12.589155  11.996503  15.696285   # H_
 240 1 4   0.011317  12.444459  12.507803  17.389164   # H_
 241 1 4   0.087731  12.412788  13.529367  15.925025   # H_
 242 1 4   0.073345  15.391368  14.029903  15.393231   # H_
 243 1 4   0.077412  14.245601  13.012892  14.543894   # H_
 244 1 4   0.102513  15.721540  12.462055  15.329681   # H_
 245 1 4   0.094544  16.200961  10.723221  18.927825   # H_
 246 1 4   0.065956  14.951071  10.946786  12.020929   # H_
 247 1 4   0.088734  12.661814  14.736201  17.556009   # H_
 248 1 4   0.102242  17.560149   8.068395  12.660986   # H_
 249 1 3   0.498173  17.520819   0.000000  17.520819   # C_3
 250 1 2  -0.759285  17.171810   0.000000  18.727859   # O_3
 251 1 2  -0.752513  18.727859   0.000000  17.171810   # O_3
 252 1 3  -0.157296  16.456818   0.000000  16.456818   # C_3
 253 1 3  -0.068034  16.883867   0.000000  15.162836   # C_3
 254 1 4   0.017070  17.999826   0.000000  14.930785   # H_
 255 1 5  -0.199319  16.224974   0.260204  12.841079   # N_3
 256 1 3   0.101536  15.887971   0.000000  14.167768   # C_3
 257 1 3  -0.244936  14.593989   0.000000  14.593782   # C_3
 258 1 3  -0.011839  14.167768   0.000000  15.887764   # C_3
 259 1 3  -0.026757  15.162836   0.000000  16.883867   # C_3
 260 1 5  -0.004974  14.754003  20.670177  18.276590   # N_3
 261 1 4  -0.002551  13.051809   0.000000  16.119815   # H_
 262 1 2  -0.819132  12.322948   0.000000  13.878790   # O_3
 263 1 3   0.537304  13.529988   0.000000  13.529781   # C_3
 264 1 2  -0.792886  13.878997   0.000000  12.322741   # O_3
 265 1 3  -0.151721  16.639603   1.604695  12.860123   # C_3
 266 1 3  -0.434181  14.431698   2.961192  12.940855   # C_3
 267 1 3   0.362114  15.802478   2.851273  13.483827   # C_3
 268 1 4   0.110700  13.958280   3.946324  12.800506   # H_
 269 1 4   0.085807  13.660608   2.309751  13.237699   # H_
 270 1 4   0.035085  17.736103   1.759327  13.129643   # H_
 271 1 4   0.046657  16.531546   1.654790  11.823033   # H_
 272 1 3  -0.399713  16.669825   4.123313  13.195056   # C_3
 273 1 3  -0.651855  15.605618   2.947323  14.899941   # C_3
 274 1 3  -0.169231  13.911083  19.541799  18.331239   # C_3
 275 1 3  -0.559025  13.703044  17.235360  18.115748   # C_3
 276 1 4   0.189022  12.985982  17.522475  18.787062   # H_
 277 1 3   0.408230  14.678654  18.315714  17.767153   # C_3
 278 1 4   0.154362  13.174149  16.939551  17.238672   # H_
 279 1 4   0.085625  12.972320  19.644887  17.756596   # H_
 280 1 4   0.092158  13.599335  19.442230  19.398759   # H_
 281 1 3  -0.533974  15.921299  18.287147  18.455649   # C_3
 282 1 3  -0.408773  15.370875  17.984508  16.390163   # C_3
 283 1 4   0.173405  15.241498   3.886086  15.172565   # H_
 284 1 4   0.202263  15.130129   2.182650  15.407929   # H_
 285 1 4   0.241996  16.480623   2.973819  15.137789   # H_
 286 1 4   0.138268  16.250642   4.568992  12.389603   # H_
 287 1 4   0.107560  16.551212   4.914689  13.887277   # H_
 288 1 4   0.118787  17.757424   3.971993  13.215342   # H_
 289 1 4   0.243620  15.793991  18.879179  19.276833   # H_
 290 1 4   0.192633  16.053781  17.313194  18.670726   # H_
 291 1 4   0.193094  16.893389  18.567638  18.059236   # H_
 292 1 4   0.115658  16.474620  17.842917  16.239878   # H_
 293 1 4   0.178805  15.157454  18.674659  15.724438   # H_
 294 1 4   0.109306  14.957695  17.092113  16.076759   # H_
 295 1 4   0.012379  14.881725   0.685804  19.033811   # H_
 296 1 4   0.135391  16.770636  20.279975  12.280098   # H_
 297 1 4   0.194679  14.203786  16.472964  18.492081   # H_
 298 1 4   0.153284  14.726472   2.602661  12.102282   # H_
 299 1 3   0.530414  17.520819  10.350200   7.170619   # C_3
 300 1 2  -0.731301  17.171810  10.350200   8.377659   # O_3
 301 1 2  -0.706294  18.727859  10.350200   6.821610   # O_3
 302 1 3  -0.165879  16.456818  10.350200   6.106618   # C_3
 303 1 3  -0.023124  16.883867  10.350200   4.812636   # C_3
 304 1 4   0.039780  17.999826  10.350200   4.580585   # H_
 305 1 5  -0.144062  16.283142  10.209644   2.382823   # N_3
 306 1 3   0.090834  15.887971  10.350200   3.817568   # C_3
 307 1 3  -0.194076  14.593989  10.350200   4.243582   # C_3
 308 1 3  -0.015393  14.167768  10.350200   5.537564   # C_3
 309 1 3   0.082079  15.162836  10.350200   6.533667   # C_3
 310 1 5  -0.128834  14.891454   9.877817   7.917075   # N_3
 311 1 4   0.028311  13.051809  10.350200   5.769615   # H_
 312 1 2  -0.681356  12.322948  10.350200   3.528590   # O_3
 313 1 3   0.543800  13.529988  10.350200   3.179581   # C_3
 314 1 2  -0.672228  13.878997  10.350200   1.972541   # O_3
 315 1 3  -0.083366  17.355629  11.109491   1.999452   # C_3
 316 1 3  -0.266723  15.701046  12.927814   2.426501   # C_3
 317 1 3   0.151105  17.241570  12.694520   2.249098   # C_3
 318 1 4   0.087716  15.311672  13.927436   2.258414   # H_
 319 1 4   0.086082  15.489281  12.744408   3.429642   # H_
 320 1 4   0.050113  18.247403  10.703763   2.473491   # H_
 321 1 4   0.021926  17.356664  10.902073   0.895292   # H_
 322 1 3  -0.251860  18.629118  12.875235   1.508438   # C_3
 323 1 3  -0.278894  17.600308  14.053709   3.042545   # C_3
 324 1 3  -0.119141  14.274582   8.597083   7.759752   # C_3
 325 1 3  -0.374144  14.344549   6.279466   7.187593   # C_3
 326 1 4   0.114873  13.332093   6.567616   7.049935   # H_
 327 1 3   0.251766  15.268408   7.488577   7.120938   # C_3
 328 1 4   0.112082  14.526299   5.484364   6.543396   # H_
 329 1 4   0.044534  13.280342   8.724805   7.244519   # H_
 330 1 4   0.047891  13.980015   8.254284   8.744884   # H_
 331 1 3  -0.349042  16.579364   7.370377   7.798876   # C_3
 332 1 3  -0.325096  15.850710   7.655215   5.768166   # C_3
 333 1 4   0.095070  17.446918  14.785882   2.301056   # H_
 334 1 4   0.090809  16.914504  14.337097   3.754639   # H_
 335 1 4   0.120239  18.569294  14.299422   3.387413   # H_
 336 1 4   0.096849  19.164844  13.794333   1.421910   # H_
 337 1 4   0.105454  19.344731  12.306388   2.048512   # H_
 338 1 4   0.058345  18.665551  12.493933   0.507988   # H_
 339 1 4   0.146389  16.238636   7.816678   8.607433   # H_
 340 1 4   0.113431  16.985506   6.363096   8.051628   # H_
 341 1 4   0.126380  17.438638   7.993045   7.522318   # H_
 342 1 4   0.105765  16.933341   7.828684   5.517485   # H_
 343 1 4   0.119268  15.303185   8.323424   5.220227   # H_
 344 1 4   0.095519  15.612656   6.728458   5.384588   # H_
 345 1 4   0.059868  14.239598  10.437349   8.480333   # H_
 346 1 4   0.067293  16.585574   9.264464   2.154705   # H_
 347 1 4   0.119216  14.405615   5.885124   8.154716   # H_
 348 1 4   0.113786  15.085831  12.256500   1.872144   # H_
 349 1 3   0.519135   7.170619   0.000000   7.170619   # C_3
 350 1 2  -0.712554   6.821610   0.000000   8.377659   # O_3
 351 1 2  -0.719777   8.377659   0.000000   6.821610   # O_3
 352 1 3  -0.189305   6.106618   0.000000   6.106618   # C_3
 353 1 3  -0.028396   6.533667   0.000000   4.812636   # C_3
 354 1 4  -0.004742   7.649626   0.000000   4.580585   # H_
 355 1 5  -0.032071   5.948674  20.677216   2.407043   # N_3
 356 1 3   0.011192   5.537564   0.000000   3.817568   # C_3
 357 1 3  -0.198698   4.243582   0.000000   4.243582   # C_3
 358 1 3  -0.015667   3.817568   0.000000   5.537564   # C_3
 359 1 3  -0.028292   4.812636   0.000000   6.533667   # C_3
 360 1 5   0.041142   4.485777  20.664381   8.030927   # N_3
 361 1 4  -0.012350   2.701609   0.000000   5.769615   # H_
 362 1 2  -0.729794   1.972748   0.000000   3.528590   # O_3
 363 1 3   0.537079   3.179581   0.000000   3.179581   # C_3
 364 1 2  -0.727390   3.528590   0.000000   1.972541   # O_3
 365 1 3  -0.187467   6.809397   1.082838   2.327760   # C_3
 366 1 3  -0.402973   4.733146   2.442233   2.298572   # C_3
 367 1 3   0.276841   6.098959   2.396278   2.928693   # C_3
 368 1 4   0.138415   4.648896   3.391347   2.029467   # H_
 369 1 4   0.123724   3.829160   2.212873   2.811528   # H_
 370 1 4   0.045349   7.734290   0.938763   2.892053   # H_
 371 1 4   0.006194   7.023232   1.113061   1.206626   # H_
 372 1 3  -0.404327   7.169377   3.404388   2.548633   # C_3
 373 1 3  -0.366307   5.540048   2.880461   4.282706   # C_3
 374 1 3  -0.359418   3.174613   0.001656   8.428168   # C_3
 375 1 3  -0.130373   2.602661  19.759981  10.459498   # C_3
 376 1 4   0.074464   3.557985  19.685459  10.900624   # H_
 377 1 3   0.283731   2.714857  19.376402   8.919181   # C_3
 378 1 4  -0.031506   2.182443   0.057961  10.674368   # H_
 379 1 4   0.081643   2.544079   0.234536   7.633065   # H_
 380 1 4   0.084322   3.061796   0.783924   9.145023   # H_
 381 1 3  -0.331208   3.689432  18.392512   8.319698   # C_3
 382 1 3  -0.266915   1.276594  18.978955   8.464394   # C_3
 383 1 4   0.094903   4.567543   3.246858   4.348947   # H_
 384 1 4   0.121560   5.580207   2.112890   4.980930   # H_
 385 1 4   0.106545   6.099373   3.696884   4.550983   # H_
 386 1 4   0.129097   6.583348   4.169061   2.257379   # H_
 387 1 4   0.119323   7.902171   3.769336   3.249135   # H_
 388 1 4   0.120778   7.673017   3.065522   1.717305   # H_
 389 1 4   0.123585   4.786346  18.487734   8.535396   # H_
 390 1 4   0.088235   3.444133  17.309467   8.305828   # H_
 391 1 4   0.136786   3.664385  18.646506   7.354024   # H_
 392 1 4   0.055641   0.661792  18.664309   9.282887   # H_
 393 1 4   0.076997   1.357739  18.007899   7.936533   # H_
 394 1 4   0.086721   0.742523  19.757704   7.872155   # H_
 395 1 4   0.008630   4.885915   0.813319   8.490062   # H_
 396 1 4   0.072431   5.766303  19.904263   1.713372   # H_
 397 1 4   0.046795   1.891603  19.107918  10.840799   # H_
 398 1 4   0.137965   4.838304   1.790585   1.492913   # H_
 399 1 3   0.530131   7.170619  10.350200  17.520819   # C_3
 400 1 2  -0.642369   6.821610  10.350200  18.727859   # O_3
 401 1 2  -0.681335   8.377659  10.350200  17.171810   # O_3
 402 1 3  -0.189752   6.106618  10.350200  16.456818   # C_3
 403 1 3  -0.028360   6.533667  10.350200  15.162836   # C_3
 404 1 4   0.032593   7.649626  10.350200  14.930785   # H_
 405 1 5  -0.134993   5.932528  10.313974  12.779599   # N_3
 406 1 3   0.100257   5.537564  10.350200  14.167768   # C_3
 407 1 3  -0.198244   4.243582  10.350200  14.593782   # C_3
 408 1 3  -0.016808   3.817568  10.350200  15.887764   # C_3
 409 1 3   0.087581   4.812636  10.350200  16.883867   # C_3
 410 1 5  -0.126942   4.442927  10.028102  18.287354   # N_3
 411 1 4   0.038749   2.701609  10.350200  16.119815   # H_
 412 1 2  -0.769164   1.972748  10.350200  13.878790   # O_3
 413 1 3   0.540301   3.179581  10.350200  13.529781   # C_3
 414 1 2  -0.751765   3.528590  10.350200  12.322741   # O_3
 415 1 3  -0.141294   6.835479  11.408818  12.710046   # C_3
 416 1 3  -0.397400   4.773098  12.618964  12.551895   # C_3
 417 1 3   0.321219   6.057558  12.699902  13.160693   # C_3
 418 1 4   0.127816   4.615775  13.565179  12.307216   # H_
 419 1 4   0.075646   3.780514  12.435765  12.963004   # H_
 420 1 4   0.051546   7.790389  11.204299  13.220724   # H_
 421 1 4   0.045784   7.090301  11.377147  11.641698   # H_
 422 1 3  -0.423295   7.078088  13.696627  12.798850   # C_3
 423 1 3  -0.394407   5.485606  13.081618  14.496490   # C_3
 424 1 3  -0.155214   3.576615   8.904691  18.368707   # C_3
 425 1 3  -0.406590   3.270042   6.588316  18.137690   # C_3
 426 1 4   0.142567   2.555257   6.883297  18.862411   # H_
 427 1 3   0.345697   4.324521   7.649005  17.838363   # C_3
 428 1 4   0.117234   2.654412   6.258145  17.310502   # H_
 429 1 4   0.054580   2.631228   9.057046  17.810003   # H_
 430 1 4   0.074992   3.232160   8.827065  19.432915   # H_
 431 1 3  -0.394408   5.753262   7.636171  18.336207   # C_3
 432 1 3  -0.530092   4.831059   7.439310  16.494286   # C_3
 433 1 4   0.095967   4.476669  13.401853  14.554865   # H_
 434 1 4   0.134983   5.477326  12.389603  15.235494   # H_
 435 1 4   0.111263   5.993801  13.915223  14.806375   # H_
 436 1 4   0.112452   6.438652  14.517398  12.574251   # H_
 437 1 4   0.120875   7.820197  14.048326  13.516326   # H_
 438 1 4   0.146703   7.532255  13.424623  11.942889   # H_
 439 1 4   0.196739   5.616226   8.229858  19.115370   # H_
 440 1 4   0.145771   6.111172   6.635513  18.538450   # H_
 441 1 4   0.126518   6.598667   8.091165  17.824286   # H_
 442 1 4   0.139252   5.695094   6.871912  16.278588   # H_
 443 1 4   0.170438   4.934975   8.266084  15.925439   # H_
 444 1 4   0.178786   4.174029   6.887644  16.095389   # H_
 445 1 4   0.082653   4.666077  10.539609  19.192997   # H_
 446 1 4   0.063970   5.765889   9.614508  12.016168   # H_
 447 1 4   0.146676   3.848618   5.771686  18.374710   # H_
 448 1 4   0.139503   4.904339  11.977458  11.746649   # H_
 449 1 3   0.532857  17.520819   3.179581   0.000000   # C_3
 450 1 2  -0.742317  18.727859   3.528590   0.000000   # O_3
 451 1 2  -0.794538  17.171810   1.972541   0.000000   # O_3
 452 1 3  -0.203931  16.456818   4.243582   0.000000   # C_3
 453 1 3  -0.008987  15.162836   3.816533   0.000000   # C_3
 454 1 4  -0.004208  14.930785   2.700574   0.000000   # H_
 455 1 5  -0.106598  13.015998   4.600664  19.773850   # N_3
 456 1 3   0.002941  14.167768   4.812636   0.000000   # C_3
 457 1 3  -0.172725  14.593782   6.106618   0.000000   # C_3
 458 1 3  -0.047633  15.887764   6.532632   0.000000   # C_3
 459 1 3   0.081142  16.883867   5.537564   0.000000   # C_3
 460 1 5  -0.182592  18.241813   5.853038   0.469071   # N_3
 461 1 4   0.009872  16.119815   7.648591   0.000000   # H_
 462 1 2  -0.712847  13.878790   8.377452   0.000000   # O_3
 463 1 3   0.529065  13.529781   7.170619   0.000000   # C_3
 464 1 2  -0.727279  12.322741   6.821610   0.000000   # O_3
 465 1 3  -0.180750  12.963004   5.491609  18.550042   # C_3
 466 1 3  -0.308861  14.521952   7.854560  18.264584   # C_3
 467 1 3   0.278503  14.072960   6.494750  17.808140   # C_3
 468 1 4   0.110091  15.008204   8.314109  17.455198   # H_
 469 1 4   0.151208  15.246466   8.045210  19.025945   # H_
 470 1 4   0.083291  12.430797   4.861489  17.997756   # H_
 471 1 4   0.109355  12.335782   6.213639  18.770502   # H_
 472 1 3  -0.460901  13.336233   6.970446  16.509604   # C_3
 473 1 3  -0.352466  15.343136   5.802736  17.697393   # C_3
 474 1 3  -0.153021  18.138518   5.721384   1.902160   # C_3
 475 1 3  -0.296402  17.804000   5.169097   4.323072   # C_3
 476 1 4   0.119848  18.265826   4.417672   4.985070   # H_
 477 1 3   0.253031  17.439880   4.660902   2.877356   # C_3
 478 1 4   0.120049  18.466206   6.066666   4.232818   # H_
 479 1 4   0.054210  17.841261   6.737773   2.262968   # H_
 480 1 4   0.122718  19.029671   5.500717   2.068798   # H_
 481 1 3  -0.317348  17.814350   3.178753   2.681737   # C_3
 482 1 3  -0.379535  15.967254   4.768337   2.764331   # C_3
 483 1 4   0.136072  15.376257   5.000803  18.446126   # H_
 484 1 4   0.111435  16.243397   6.431200  17.782265   # H_
 485 1 4   0.094881  15.280828   5.399492  16.770015   # H_
 486 1 4   0.169675  12.415065   6.782072  16.598616   # H_
 487 1 4   0.133224  13.301042   8.023889  16.258715   # H_
 488 1 4   0.132418  13.644462   6.477362  15.670617   # H_