 (written by mofun)

824 atoms
0 bonds
0 angles
0 dihedrals
0 impropers

5 atom types
   0.000000  26.896000 xlo xhi
   0.000000  26.896000 ylo yhi
   0.000000  26.896000 zlo zhi

Masses

 1 91.2240   # Zr3+4
 2 15.9994   # O_3
 3 12.0107   # C_3
 4 1.0079   # H_
 5 18.9984   # F_

Pair Coeffs

 1   0.069000   2.783168 # Zr3+4
 2   0.060000   3.118146 # O_3
 3   0.105000   3.430851 # C_3
 4   0.044000   2.571134 # H_
 5   0.050000   2.996983 # F_

Atoms

 1 1 1   3.184380   2.475508   0.000000   0.000000   # Zr3+4
 2 1 1   3.183510  24.420492   0.000000   0.000000   # Zr3+4
 3 1 1   3.184390   0.000000   2.475508   0.000000   # Zr3+4
 4 1 1   3.183510   0.000000  24.420492   0.000000   # Zr3+4
 5 1 1   3.184390   0.000000   0.000000   2.475508   # Zr3+4
 6 1 1   3.183510   0.000000   0.000000  24.420492   # Zr3+4
 7 1 1   3.217240   2.475508  13.448000  13.448000   # Zr3+4
 8 1 1   3.215930  24.420492  13.448000  13.448000   # Zr3+4
 9 1 1   3.200440   0.000000  15.923508  13.448000   # Zr3+4
 10 1 1   3.200400   0.000000  10.972492  13.448000   # Zr3+4
 11 1 1   3.200570   0.000000  13.448000  15.923508   # Zr3+4
 12 1 1   3.200530   0.000000  13.448000  10.972492   # Zr3+4
 13 1 1   3.200520  15.923508   0.000000  13.448000   # Zr3+4
 14 1 1   3.200480  10.972492   0.000000  13.448000   # Zr3+4
 15 1 1   3.217250  13.448000   2.475508  13.448000   # Zr3+4
 16 1 1   3.215930  13.448000  24.420492  13.448000   # Zr3+4
 17 1 1   3.200400  13.448000   0.000000  15.923508   # Zr3+4
 18 1 1   3.200360  13.448000   0.000000  10.972492   # Zr3+4
 19 1 1   3.200420  15.923508  13.448000   0.000000   # Zr3+4
 20 1 1   3.200370  10.972492  13.448000   0.000000   # Zr3+4
 21 1 1   3.200490  13.448000  15.923508   0.000000   # Zr3+4
 22 1 1   3.200450  13.448000  10.972492   0.000000   # Zr3+4
 23 1 1   3.217220  13.448000  13.448000   2.475508   # Zr3+4
 24 1 1   3.215910  13.448000  13.448000  24.420492   # Zr3+4
 25 1 2  -1.341660   1.221078   1.221078   1.221078   # O_3
 26 1 2  -1.114500  25.674922  25.674922   1.221078   # O_3
 27 1 2  -1.114530  25.674922   1.221078  25.674922   # O_3
 28 1 2  -1.114460   1.221078  25.674922  25.674922   # O_3
 29 1 2  -1.219210   1.221078   1.221078  25.674922   # O_3
 30 1 2  -1.000760  25.674922  25.674922  25.674922   # O_3
 31 1 2  -1.219180   1.221078  25.674922   1.221078   # O_3
 32 1 2  -1.219250  25.674922   1.221078   1.221078   # O_3
 33 1 2  -1.274690   1.221078  14.669078  14.669078   # O_3
 34 1 2  -1.160040  25.674922  12.226922  14.669078   # O_3
 35 1 2  -1.160070  25.674922  14.669078  12.226922   # O_3
 36 1 2  -1.275080   1.221078  12.226922  12.226922   # O_3
 37 1 2  -1.269190   1.221078  14.669078  12.226922   # O_3
 38 1 2  -1.154370  25.674922  12.226922  12.226922   # O_3
 39 1 2  -1.269210   1.221078  12.226922  14.669078   # O_3
 40 1 2  -1.154740  25.674922  14.669078  14.669078   # O_3
 41 1 2  -1.273500  14.669078   1.221078  14.669078   # O_3
 42 1 2  -1.159090  12.226922  25.674922  14.669078   # O_3
 43 1 2  -1.273850  12.226922   1.221078  12.226922   # O_3
 44 1 2  -1.159080  14.669078  25.674922  12.226922   # O_3
 45 1 2  -1.270770  14.669078   1.221078  12.226922   # O_3
 46 1 2  -1.155720  12.226922  25.674922  12.226922   # O_3
 47 1 2  -1.156050  14.669078  25.674922  14.669078   # O_3
 48 1 2  -1.270770  12.226922   1.221078  14.669078   # O_3
 49 1 2  -1.272320  14.669078  14.669078   1.221078   # O_3
 50 1 2  -1.272670  12.226922  12.226922   1.221078   # O_3
 51 1 2  -1.157950  12.226922  14.669078  25.674922   # O_3
 52 1 2  -1.157950  14.669078  12.226922  25.674922   # O_3
 53 1 2  -1.157620  14.669078  14.669078  25.674922   # O_3
 54 1 2  -1.157300  12.226922  12.226922  25.674922   # O_3
 55 1 2  -1.272360  14.669078  12.226922   1.221078   # O_3
 56 1 2  -1.272350  12.226922  14.669078   1.221078   # O_3
 57 1 2  -0.604488   3.566410   0.000000   1.933822   # O_3
 58 1 3   0.428593   3.152211   0.000000   3.152211   # C_3
 59 1 2  -0.601863   1.933822   0.000000   3.566410   # O_3
 60 1 3   0.028345   4.209224   0.000000   4.209224   # C_3
 61 1 3  -0.049079   5.535197   0.000000   3.891851   # C_3
 62 1 3  -0.203427   3.891851   0.000000   5.535197   # C_3
 63 1 3  -0.019447   6.508832   0.000000   4.827832   # C_3
 64 1 4   0.126112   5.779950   0.000000   2.996214   # H_
 65 1 3   0.049529   4.827832   0.000000   6.508832   # C_3
 66 1 3   1.036180   2.389710  26.500629   6.074731   # C_3
 67 1 3   0.000341   6.204907   0.000000   6.204907   # C_3
 68 1 3  -0.007359   7.243093   0.000000   7.243093   # C_3
 69 1 4   0.065911   7.399090   0.000000   4.558872   # H_
 70 1 3   0.052693   8.620168   0.000000   6.939168   # C_3
 71 1 4   0.046801   4.558872   0.000000   7.399090   # H_
 72 1 3  -0.007086   6.939168   0.000000   8.620168   # C_3
 73 1 3  -0.206439   9.556149   0.000000   7.912803   # C_3
 74 1 4   0.039754   8.889128   0.000000   6.048910   # H_
 75 1 3  -0.066285   7.912803   0.000000   9.556149   # C_3
 76 1 4   0.065313   6.048910   0.000000   8.889128   # H_
 77 1 3   0.035477   9.238776   0.000000   9.238776   # C_3
 78 1 3   0.416628  10.295789   0.000000  10.295789   # C_3
 79 1 3   0.953852  11.103207  26.894924   7.370849   # C_3
 80 1 4   0.148263   7.668050   0.000000  10.451786   # H_
 81 1 2  -0.596462  11.514178   0.000000   9.881590   # O_3
 82 1 2  -0.586914   9.881590   0.000000  11.514178   # O_3
 83 1 5  -0.322660  11.154309  26.894117   5.924113   # F_
 84 1 5  -0.387810  11.819716  25.747003   7.768372   # F_
 85 1 5  -0.519877  11.821061   1.146308   7.767296   # F_
 86 1 5  -0.441492   2.121556  25.265833   5.598402   # F_
 87 1 5  -0.576652   1.396171   0.512369   5.770537   # F_
 88 1 5  -0.375121   2.417681  26.475347   7.461488   # F_
 89 1 2  -0.605057  23.329590   0.000000   1.933822   # O_3
 90 1 3   0.462454  23.743789   0.000000   3.152211   # C_3
 91 1 2  -0.540383  24.962178   0.000000   3.566410   # O_3
 92 1 3  -0.055229  22.686776   0.000000   4.209224   # C_3
 93 1 3   0.031054  21.360803   0.000000   3.891851   # C_3
 94 1 3   0.008895  23.004149   0.000000   5.535197   # C_3
 95 1 3  -0.069392  20.387168   0.000000   4.827832   # C_3
 96 1 4   0.105292  21.116050   0.000000   2.996214   # H_
 97 1 3  -0.051524  22.068168   0.000000   6.508832   # C_3
 98 1 3   0.663018  24.506290   0.395371   6.074731   # C_3
 99 1 3   0.046321  20.691093   0.000000   6.204907   # C_3
 100 1 3   0.046524  19.652907   0.000000   7.243093   # C_3
 101 1 4   0.089748  19.496910   0.000000   4.558872   # H_
 102 1 3  -0.062104  18.275832   0.000000   6.939168   # C_3
 103 1 4   0.121927  22.337128   0.000000   7.399090   # H_
 104 1 3  -0.069445  19.956832   0.000000   8.620168   # C_3
 105 1 3   0.010284  17.339851   0.000000   7.912803   # C_3
 106 1 4   0.108276  18.006872   0.000000   6.048910   # H_
 107 1 3   0.023699  18.983197   0.000000   9.556149   # C_3
 108 1 4   0.104377  20.847090   0.000000   8.889128   # H_
 109 1 3  -0.066907  17.657224   0.000000   9.238776   # C_3
 110 1 3   0.458284  16.600211   0.000000  10.295789   # C_3
 111 1 3   0.581940  15.792793   0.001076   7.370849   # C_3
 112 1 4   0.124864  19.227950   0.000000  10.451786   # H_
 113 1 2  -0.596439  15.381822   0.000000   9.881590   # O_3
 114 1 2  -0.594869  17.014410   0.000000  11.514178   # O_3
 115 1 5  -0.413180  15.741691   0.001883   5.924113   # F_
 116 1 5  -0.410132  15.076284   1.148997   7.768372   # F_
 117 1 5  -0.284972  15.074939  25.749692   7.767296   # F_
 118 1 5  -0.379690  24.774444   1.630167   5.598402   # F_
 119 1 5  -0.209778  25.500098  26.383900   5.770537   # F_
 120 1 5  -0.388269  24.478319   0.420653   7.461488   # F_
 121 1 2  -0.524611  23.329590   0.000000  24.962178   # O_3
 122 1 3   0.411575  23.743789   0.000000  23.743789   # C_3
 123 1 2  -0.524145  24.962178   0.000000  23.329590   # O_3
 124 1 3   0.056452  22.686776   0.000000  22.686776   # C_3
 125 1 3  -0.048695  21.360803   0.000000  23.004149   # C_3
 126 1 3  -0.185712  23.004149   0.000000  21.360803   # C_3
 127 1 3  -0.002377  20.387168   0.000000  22.068168   # C_3
 128 1 4   0.155347  21.116050   0.000000  23.899786   # H_
 129 1 3   0.055796  22.068168   0.000000  20.387168   # C_3
 130 1 3   1.030500  24.506290  26.500629  20.821269   # C_3
 131 1 3   0.008141  20.691093   0.000000  20.691093   # C_3
 132 1 3   0.010313  19.652907   0.000000  19.652907   # C_3
 133 1 4   0.084250  19.496910   0.000000  22.337128   # H_
 134 1 3   0.046059  18.275832   0.000000  19.956832   # C_3
 135 1 4   0.063359  22.337128   0.000000  19.496910   # H_
 136 1 3  -0.013184  19.956832   0.000000  18.275832   # C_3
 137 1 3  -0.192113  17.339851   0.000000  18.983197   # C_3
 138 1 4   0.057016  18.006872   0.000000  20.847090   # H_
 139 1 3  -0.051468  18.983197   0.000000  17.339851   # C_3
 140 1 4   0.083951  20.847090   0.000000  18.006872   # H_
 141 1 3   0.029963  17.657224   0.000000  17.657224   # C_3
 142 1 3   0.420570  16.600211   0.000000  16.600211   # C_3
 143 1 3   0.950327  15.792793  26.894924  19.525151   # C_3
 144 1 4   0.150031  19.227950   0.000000  16.444214   # H_
 145 1 2  -0.596391  15.381822   0.000000  17.014410   # O_3
 146 1 2  -0.586417  17.014410   0.000000  15.381822   # O_3
 147 1 5  -0.299139  15.741691  26.894117  20.971887   # F_
 148 1 5  -0.382047  15.076284  25.747003  19.127628   # F_
 149 1 5  -0.511631  15.074939   1.146308  19.128704   # F_
 150 1 5  -0.378227  24.774444  25.265833  21.297598   # F_
 151 1 5  -0.475569  25.500098   0.512369  21.125463   # F_
 152 1 5  -0.314585  24.478319  26.475347  19.434512   # F_
 153 1 2  -0.537628   3.566410   0.000000  24.962178   # O_3
 154 1 3   0.459047   3.152211   0.000000  23.743789   # C_3
 155 1 2  -0.604033   1.933822   0.000000  23.329590   # O_3
 156 1 3  -0.042825   4.209224   0.000000  22.686776   # C_3
 157 1 3   0.024018   5.535197   0.000000  23.004149   # C_3
 158 1 3  -0.009814   3.891851   0.000000  21.360803   # C_3
 159 1 3  -0.055702   6.508832   0.000000  22.068168   # C_3
 160 1 4   0.131978   5.779950   0.000000  23.899786   # H_
 161 1 3  -0.041419   4.827832   0.000000  20.387168   # C_3
 162 1 3   0.664026   2.389710   0.395371  20.821269   # C_3
 163 1 3   0.037866   6.204907   0.000000  20.691093   # C_3
 164 1 3   0.051764   7.243093   0.000000  19.652907   # C_3
 165 1 4   0.104702   7.399090   0.000000  22.337128   # H_
 166 1 3  -0.067181   8.620168   0.000000  19.956832   # C_3
 167 1 4   0.104534   4.558872   0.000000  19.496910   # H_
 168 1 3  -0.073323   6.939168   0.000000  18.275832   # C_3
 169 1 3   0.016372   9.556149   0.000000  18.983197   # C_3
 170 1 4   0.121500   8.889128   0.000000  20.847090   # H_
 171 1 3   0.023896   7.912803   0.000000  17.339851   # C_3
 172 1 4   0.092864   6.048910   0.000000  18.006872   # H_
 173 1 3  -0.069674   9.238776   0.000000  17.657224   # C_3
 174 1 3   0.459156  10.295789   0.000000  16.600211   # C_3
 175 1 3   0.582633  11.103207   0.001076  19.525151   # C_3
 176 1 4   0.119457   7.668050   0.000000  16.444214   # H_
 177 1 2  -0.596502  11.514178   0.000000  17.014410   # O_3
 178 1 2  -0.595634   9.881590   0.000000  15.381822   # O_3
 179 1 5  -0.389846  11.154309   0.001883  20.971887   # F_
 180 1 5  -0.405127  11.819716   1.148997  19.127628   # F_
 181 1 5  -0.280506  11.821061  25.749692  19.128704   # F_
 182 1 5  -0.437423   2.121556   1.630167  21.297598   # F_
 183 1 5  -0.304344   1.396171  26.383900  21.125463   # F_
 184 1 5  -0.448095   2.417681   0.420653  19.434512   # F_
 185 1 2  -0.604518   1.933822   3.566410   0.000000   # O_3
 186 1 3   0.428613   3.152211   3.152211   0.000000   # C_3
 187 1 2  -0.601849   3.566410   1.933822   0.000000   # O_3
 188 1 3   0.028296   4.209224   4.209224   0.000000   # C_3
 189 1 3  -0.049020   3.891851   5.535197   0.000000   # C_3
 190 1 3  -0.203361   5.535197   3.891851   0.000000   # C_3
 191 1 3  -0.019486   4.827832   6.508832   0.000000   # C_3
 192 1 4   0.126067   2.996214   5.779950   0.000000   # H_
 193 1 3   0.049464   6.508832   4.827832   0.000000   # C_3
 194 1 3   1.036110   6.074731   2.389710  26.500629   # C_3
 195 1 3   0.000356   6.204907   6.204907   0.000000   # C_3
 196 1 3  -0.007456   7.243093   7.243093   0.000000   # C_3
 197 1 4   0.065930   4.558872   7.399090   0.000000   # H_
 198 1 3   0.052662   6.939168   8.620168   0.000000   # C_3
 199 1 4   0.046790   7.399090   4.558872   0.000000   # H_
 200 1 3  -0.007144   8.620168   6.939168   0.000000   # C_3
 201 1 3  -0.206614   7.912803   9.556149   0.000000   # C_3
 202 1 4   0.039752   6.048910   8.889128   0.000000   # H_
 203 1 3  -0.066472   9.556149   7.912803   0.000000   # C_3
 204 1 4   0.065248   8.889128   6.048910   0.000000   # H_
 205 1 3   0.035283   9.238776   9.238776   0.000000   # C_3
 206 1 3   0.416325  10.295789  10.295789   0.000000   # C_3
 207 1 3   0.953859   7.370849  11.103207  26.895731   # C_3
 208 1 4   0.148218  10.451786   7.668050   0.000000   # H_
 209 1 2  -0.596560   9.881590  11.514178   0.000000   # O_3
 210 1 2  -0.587115  11.514178   9.881590   0.000000   # O_3
 211 1 5  -0.322657   5.924113  11.154309  26.895462   # F_
 212 1 5  -0.388420   7.768103  11.819985  25.747810   # F_
 213 1 5  -0.519370   7.767565  11.820523   1.147114   # F_
 214 1 5  -0.441614   5.598402   2.121556  25.265833   # F_
 215 1 5  -0.576593   5.770537   1.396171   0.512369   # F_
 216 1 5  -0.375234   7.461488   2.417681  26.475347   # F_
 217 1 2  -0.605078   1.933822  23.329590   0.000000   # O_3
 218 1 3   0.462460   3.152211  23.743789   0.000000   # C_3
 219 1 2  -0.540322   3.566410  24.962178   0.000000   # O_3
 220 1 3  -0.055242   4.209224  22.686776   0.000000   # C_3
 221 1 3   0.031100   3.891851  21.360803   0.000000   # C_3
 222 1 3   0.008911   5.535197  23.004149   0.000000   # C_3
 223 1 3  -0.069400   4.827832  20.387168   0.000000   # C_3
 224 1 4   0.105269   2.996214  21.116050   0.000000   # H_
 225 1 3  -0.051550   6.508832  22.068168   0.000000   # C_3
 226 1 3   0.663046   6.074731  24.506290   0.395371   # C_3
 227 1 3   0.046319   6.204907  20.691093   0.000000   # C_3
 228 1 3   0.046449   7.243093  19.652907   0.000000   # C_3
 229 1 4   0.089785   4.558872  19.496910   0.000000   # H_
 230 1 3  -0.062137   6.939168  18.275832   0.000000   # C_3
 231 1 4   0.121901   7.399090  22.337128   0.000000   # H_
 232 1 3  -0.069532   8.620168  19.956832   0.000000   # C_3
 233 1 3   0.010114   7.912803  17.339851   0.000000   # C_3
 234 1 4   0.108298   6.048910  18.006872   0.000000   # H_
 235 1 3   0.023518   9.556149  18.983197   0.000000   # C_3
 236 1 4   0.104322   8.889128  20.847090   0.000000   # H_
 237 1 3  -0.067129   9.238776  17.657224   0.000000   # C_3
 238 1 3   0.457960  10.295789  16.600211   0.000000   # C_3
 239 1 3   0.581959   7.370849  15.792793   0.000269   # C_3
 240 1 4   0.124800  10.451786  19.227950   0.000000   # H_
 241 1 2  -0.596551   9.881590  15.381822   0.000000   # O_3
 242 1 2  -0.595098  11.514178  17.014410   0.000000   # O_3
 243 1 5  -0.413159   5.924113  15.741691   0.000538   # F_
 244 1 5  -0.410778   7.768103  15.076015   1.148190   # F_
 245 1 5  -0.284501   7.767565  15.075477  25.748886   # F_
 246 1 5  -0.379742   5.598402  24.774444   1.630167   # F_
 247 1 5  -0.209743   5.770537  25.500098  26.383900   # F_
 248 1 5  -0.388323   7.461488  24.478319   0.420653   # F_
 249 1 2  -0.524654  24.962178  23.329590   0.000000   # O_3
 250 1 3   0.411592  23.743789  23.743789   0.000000   # C_3
 251 1 2  -0.524091  23.329590  24.962178   0.000000   # O_3
 252 1 3   0.056412  22.686776  22.686776   0.000000   # C_3
 253 1 3  -0.048634  23.004149  21.360803   0.000000   # C_3
 254 1 3  -0.185646  21.360803  23.004149   0.000000   # C_3
 255 1 3  -0.002409  22.068168  20.387168   0.000000   # C_3
 256 1 4   0.155319  23.899786  21.116050   0.000000   # H_
 257 1 3   0.055739  20.387168  22.068168   0.000000   # C_3
 258 1 3   1.030440  20.821269  24.506290  26.500629   # C_3
 259 1 3   0.008157  20.691093  20.691093   0.000000   # C_3
 260 1 3   0.010245  19.652907  19.652907   0.000000   # C_3
 261 1 4   0.084295  22.337128  19.496910   0.000000   # H_
 262 1 3   0.046014  19.956832  18.275832   0.000000   # C_3
 263 1 4   0.063351  19.496910  22.337128   0.000000   # H_
 264 1 3  -0.013269  18.275832  19.956832   0.000000   # C_3
 265 1 3  -0.192254  18.983197  17.339851   0.000000   # C_3
 266 1 4   0.057047  20.847090  18.006872   0.000000   # H_
 267 1 3  -0.051631  17.339851  18.983197   0.000000   # C_3
 268 1 4   0.083905  18.006872  20.847090   0.000000   # H_
 269 1 3   0.029761  17.657224  17.657224   0.000000   # C_3
 270 1 3   0.420279  16.600211  16.600211   0.000000   # C_3
 271 1 3   0.950295  19.525151  15.792793  26.895731   # C_3
 272 1 4   0.149978  16.444214  19.227950   0.000000   # H_
 273 1 2  -0.596479  17.014410  15.381822   0.000000   # O_3
 274 1 2  -0.586623  15.381822  17.014410   0.000000   # O_3
 275 1 5  -0.299052  20.971887  15.741691  26.895462   # F_
 276 1 5  -0.382675  19.127897  15.076015  25.747810   # F_
 277 1 5  -0.511019  19.128166  15.075477   1.147114   # F_
 278 1 5  -0.378299  21.297598  24.774444  25.265833   # F_
 279 1 5  -0.475459  21.125463  25.500098   0.512369   # F_
 280 1 5  -0.314656  19.434512  24.478319  26.475347   # F_
 281 1 2  -0.537659  24.962178   3.566410   0.000000   # O_3
 282 1 3   0.459064  23.743789   3.152211   0.000000   # C_3
 283 1 2  -0.604014  23.329590   1.933822   0.000000   # O_3
 284 1 3  -0.042839  22.686776   4.209224   0.000000   # C_3
 285 1 3   0.024072  23.004149   5.535197   0.000000   # C_3
 286 1 3  -0.009791  21.360803   3.891851   0.000000   # C_3
 287 1 3  -0.055700  22.068168   6.508832   0.000000   # C_3
 288 1 4   0.131977  23.899786   5.779950   0.000000   # H_
 289 1 3  -0.041444  20.387168   4.827832   0.000000   # C_3
 290 1 3   0.664056  20.821269   2.389710   0.395371   # C_3
 291 1 3   0.037869  20.691093   6.204907   0.000000   # C_3
 292 1 3   0.051706  19.652907   7.243093   0.000000   # C_3
 293 1 4   0.104764  22.337128   7.399090   0.000000   # H_
 294 1 3  -0.067229  19.956832   8.620168   0.000000   # C_3
 295 1 4   0.104503  19.496910   4.558872   0.000000   # H_
 296 1 3  -0.073412  18.275832   6.939168   0.000000   # C_3
 297 1 3   0.016231  18.983197   9.556149   0.000000   # C_3
 298 1 4   0.121559  20.847090   8.889128   0.000000   # H_
 299 1 3   0.023721  17.339851   7.912803   0.000000   # C_3
 300 1 4   0.092805  18.006872   6.048910   0.000000   # H_
 301 1 3  -0.069897  17.657224   9.238776   0.000000   # C_3
 302 1 3   0.458837  16.600211  10.295789   0.000000   # C_3
 303 1 3   0.582638  19.525151  11.103207   0.000269   # C_3
 304 1 4   0.119392  16.444214   7.668050   0.000000   # H_
 305 1 2  -0.596607  17.014410  11.514178   0.000000   # O_3
 306 1 2  -0.595864  15.381822   9.881590   0.000000   # O_3
 307 1 5  -0.389739  20.971887  11.154309   0.000538   # F_
 308 1 5  -0.405828  19.127897  11.819985   1.148190   # F_
 309 1 5  -0.279927  19.128166  11.820523  25.748886   # F_
 310 1 5  -0.437573  21.297598   2.121556   1.630167   # F_
 311 1 5  -0.304347  21.125463   1.396171  26.383900   # F_
 312 1 5  -0.448200  19.434512   2.417681   0.420653   # F_
 313 1 2  -0.604390   0.000000   1.933822   3.566410   # O_3
 314 1 3   0.428279   0.000000   3.152211   3.152211   # C_3
 315 1 2  -0.601773   0.000000   3.566410   1.933822   # O_3
 316 1 3   0.029252   0.000000   4.209224   4.209224   # C_3
 317 1 3  -0.050571   0.000000   3.891851   5.535197   # C_3
 318 1 3  -0.204291   0.000000   5.535197   3.891851   # C_3
 319 1 3  -0.017312   0.000000   4.827832   6.508832   # C_3
 320 1 4   0.126648   0.000000   2.996214   5.779950   # H_
 321 1 3   0.051431   0.000000   6.508832   4.827832   # C_3
 322 1 3   1.036200  26.500091   6.075000   2.389710   # C_3
 323 1 3  -0.002544   0.000000   6.204907   6.204907   # C_3
 324 1 3  -0.001511   0.000000   7.243093   7.243093   # C_3
 325 1 4   0.065136   0.000000   4.558872   7.399090   # H_
 326 1 3   0.047586   0.000000   6.939168   8.620168   # C_3
 327 1 4   0.045938   0.000000   7.399090   4.558872   # H_
 328 1 3  -0.017203   0.000000   8.620168   6.939168   # C_3
 329 1 3  -0.201058   0.000000   7.912803   9.556149   # C_3
 330 1 4   0.041588   0.000000   6.048910   8.889128   # H_
 331 1 3  -0.051372   0.000000   9.556149   7.912803   # C_3
 332 1 4   0.068146   0.000000   8.889128   6.048910   # H_
 333 1 3   0.026871   0.000000   9.238776   9.238776   # C_3
 334 1 3   0.420594   0.000000  10.295789  10.295789   # C_3
 335 1 3   0.952513  26.894117   7.370849  11.103207   # C_3
 336 1 4   0.132538   0.000000  10.451786   7.668050   # H_
 337 1 2  -0.597236   0.000000   9.881590  11.514178   # O_3
 338 1 2  -0.593950   0.000000  11.514178   9.881590   # O_3
 339 1 5  -0.322449  26.892504   5.923844  11.154309   # F_
 340 1 5  -0.386549  25.745927   7.768641  11.818909   # F_
 341 1 5  -0.520488   1.145232   7.766758  11.821868   # F_
 342 1 5  -0.441437  25.265027   5.599209   2.121825   # F_
 343 1 5  -0.576716   0.511562   5.770806   1.395902   # F_
 344 1 5  -0.375193  26.475616   7.461757   2.417950   # F_
 345 1 2  -0.604946   0.000000   1.933822  23.329590   # O_3
 346 1 3   0.462157   0.000000   3.152211  23.743789   # C_3
 347 1 2  -0.540257   0.000000   3.566410  24.962178   # O_3
 348 1 3  -0.054296   0.000000   4.209224  22.686776   # C_3
 349 1 3   0.029687   0.000000   3.891851  21.360803   # C_3
 350 1 3   0.008039   0.000000   5.535197  23.004149   # C_3
 351 1 3  -0.067324   0.000000   4.827832  20.387168   # C_3
 352 1 4   0.105810   0.000000   2.996214  21.116050   # H_
 353 1 3  -0.049606   0.000000   6.508832  22.068168   # C_3
 354 1 3   0.663417   0.395909   6.075000  24.506290   # C_3
 355 1 3   0.043803   0.000000   6.204907  20.691093   # C_3
 356 1 3   0.052407   0.000000   7.243093  19.652907   # C_3
 357 1 4   0.089073   0.000000   4.558872  19.496910   # H_
 358 1 3  -0.066603   0.000000   6.939168  18.275832   # C_3
 359 1 4   0.121462   0.000000   7.399090  22.337128   # H_
 360 1 3  -0.078523   0.000000   8.620168  19.956832   # C_3
 361 1 3   0.015482   0.000000   7.912803  17.339851   # C_3
 362 1 4   0.109986   0.000000   6.048910  18.006872   # H_
 363 1 3   0.039720   0.000000   9.556149  18.983197   # C_3
 364 1 4   0.108064   0.000000   8.889128  20.847090   # H_
 365 1 3  -0.074132   0.000000   9.238776  17.657224   # C_3
 366 1 3   0.463173   0.000000  10.295789  16.600211   # C_3
 367 1 3   0.580993   0.001883   7.370849  15.792793   # C_3
 368 1 4   0.111542   0.000000  10.451786  19.227950   # H_
 369 1 2  -0.597146   0.000000   9.881590  15.381822   # O_3
 370 1 2  -0.600787   0.000000  11.514178  17.014410   # O_3
 371 1 5  -0.412833   0.003496   5.923844  15.741691   # F_
 372 1 5  -0.408689   1.150073   7.768641  15.077091   # F_
 373 1 5  -0.285524  25.750768   7.766758  15.074132   # F_
 374 1 5  -0.379526   1.630973   5.599209  24.774175   # F_
 375 1 5  -0.209941  26.384707   5.770806  25.500098   # F_
 376 1 5  -0.388041   0.420384   7.461757  24.478050   # F_
 377 1 2  -0.524493   0.000000  24.962178  23.329590   # O_3
 378 1 3   0.411258   0.000000  23.743789  23.743789   # C_3
 379 1 2  -0.524009   0.000000  23.329590  24.962178   # O_3
 380 1 3   0.057362   0.000000  22.686776  22.686776   # C_3
 381 1 3  -0.050165   0.000000  23.004149  21.360803   # C_3
 382 1 3  -0.186568   0.000000  21.360803  23.004149   # C_3
 383 1 3  -0.000281   0.000000  22.068168  20.387168   # C_3
 384 1 4   0.155880   0.000000  23.899786  21.116050   # H_
 385 1 3   0.057662   0.000000  20.387168  22.068168   # C_3
 386 1 3   1.030670  26.500091  20.821000  24.506290   # C_3
 387 1 3   0.005330   0.000000  20.691093  20.691093   # C_3
 388 1 3   0.016033   0.000000  19.652907  19.652907   # C_3
 389 1 4   0.083495   0.000000  22.337128  19.496910   # H_
 390 1 3   0.041092   0.000000  19.956832  18.275832   # C_3
 391 1 4   0.062547   0.000000  19.496910  22.337128   # H_
 392 1 3  -0.023042   0.000000  18.275832  19.956832   # C_3
 393 1 3  -0.186878   0.000000  18.983197  17.339851   # C_3
 394 1 4   0.058811   0.000000  20.847090  18.006872   # H_
 395 1 3  -0.036891   0.000000  17.339851  18.983197   # C_3
 396 1 4   0.086798   0.000000  18.006872  20.847090   # H_
 397 1 3   0.021608   0.000000  17.657224  17.657224   # C_3
 398 1 3   0.424442   0.000000  16.600211  16.600211   # C_3
 399 1 3   0.949109  26.894117  19.525151  15.792793   # C_3
 400 1 4   0.134775   0.000000  16.444214  19.227950   # H_
 401 1 2  -0.597129   0.000000  17.014410  15.381822   # O_3
 402 1 2  -0.593231   0.000000  15.381822  17.014410   # O_3
 403 1 5  -0.299035  26.892504  20.971887  15.741691   # F_
 404 1 5  -0.380803  25.745927  19.127090  15.077091   # F_
 405 1 5  -0.512232   1.145232  19.129242  15.074132   # F_
 406 1 5  -0.378145  25.265027  21.296791  24.774175   # F_
 407 1 5  -0.475705   0.511562  21.125194  25.500098   # F_
 408 1 5  -0.314632  26.475616  19.434243  24.478050   # F_
 409 1 2  -0.537497   0.000000  24.962178   3.566410   # O_3
 410 1 3   0.458746   0.000000  23.743789   3.152211   # C_3
 411 1 2  -0.603941   0.000000  23.329590   1.933822   # O_3
 412 1 3  -0.041885   0.000000  22.686776   4.209224   # C_3
 413 1 3   0.022635   0.000000  23.004149   5.535197   # C_3
 414 1 3  -0.010687   0.000000  21.360803   3.891851   # C_3
 415 1 3  -0.053603   0.000000  22.068168   6.508832   # C_3
 416 1 4   0.132509   0.000000  23.899786   5.779950   # H_
 417 1 3  -0.039471   0.000000  20.387168   4.827832   # C_3
 418 1 3   0.664356   0.395909  20.821000   2.389710   # C_3
 419 1 3   0.035297   0.000000  20.691093   6.204907   # C_3
 420 1 3   0.057727   0.000000  19.652907   7.243093   # C_3
 421 1 4   0.104020   0.000000  22.337128   7.399090   # H_
 422 1 3  -0.071747   0.000000  19.956832   8.620168   # C_3
 423 1 4   0.104023   0.000000  19.496910   4.558872   # H_
 424 1 3  -0.082582   0.000000  18.275832   6.939168   # C_3
 425 1 3   0.021631   0.000000  18.983197   9.556149   # C_3
 426 1 4   0.123235   0.000000  20.847090   8.889128   # H_
 427 1 3   0.040148   0.000000  17.339851   7.912803   # C_3
 428 1 4   0.096523   0.000000  18.006872   6.048910   # H_
 429 1 3  -0.077053   0.000000  17.657224   9.238776   # C_3
 430 1 3   0.464105   0.000000  16.600211  10.295789   # C_3
 431 1 3   0.581758   0.001883  19.525151  11.103207   # C_3
 432 1 4   0.105768   0.000000  16.444214   7.668050   # H_
 433 1 2  -0.597214   0.000000  17.014410  11.514178   # O_3
 434 1 2  -0.601720   0.000000  15.381822   9.881590   # O_3
 435 1 5  -0.389571   0.003496  20.971887  11.154309   # F_
 436 1 5  -0.403677   1.150073  19.127090  11.818909   # F_
 437 1 5  -0.281070  25.750768  19.129242  11.821868   # F_
 438 1 5  -0.437290   1.630973  21.296791   2.121825   # F_
 439 1 5  -0.304496  26.384707  21.125194   1.395902   # F_
 440 1 5  -0.447904   0.420384  19.434243   2.417950   # F_
 441 1 2  -0.539065   3.566410  13.448000  15.381822   # O_3
 442 1 3   0.462014   3.152211  13.448000  16.600211   # C_3
 443 1 2  -0.542423   1.933822  13.448000  17.014410   # O_3
 444 1 3  -0.021703   4.209224  13.448000  17.657224   # C_3
 445 1 3   0.019736   5.535197  13.448000  17.339851   # C_3
 446 1 3  -0.008556   3.891851  13.448000  18.983197   # C_3
 447 1 3  -0.046472   6.508832  13.448000  18.275832   # C_3
 448 1 4   0.144589   5.779950  13.448000  16.444214   # H_
 449 1 3  -0.030632   4.827832  13.448000  19.956832   # C_3
 450 1 3   0.779440   2.388903  13.055318  19.519772   # C_3
 451 1 3   0.054930   6.204907  13.448000  19.652907   # C_3
 452 1 3   0.049497   7.243093  13.448000  20.691093   # C_3
 453 1 4   0.109932   7.399090  13.448000  18.006872   # H_
 454 1 3  -0.030321   8.620168  13.448000  20.387168   # C_3
 455 1 4   0.127101   4.558872  13.448000  20.847090   # H_
 456 1 3  -0.030961   6.939168  13.448000  22.068168   # C_3
 457 1 3  -0.004391   9.556149  13.448000  21.360803   # C_3
 458 1 4   0.118484   8.889128  13.448000  19.496910   # H_
 459 1 3   0.006785   7.912803  13.448000  23.004149   # C_3
 460 1 4   0.115901   6.048910  13.448000  22.337128   # H_
 461 1 3  -0.006784   9.238776  13.448000  22.686776   # C_3
 462 1 3   0.448368  10.295789  13.448000  23.743789   # C_3
 463 1 3   0.698521  11.103207  13.447731  20.818849   # C_3
 464 1 4   0.174275   7.668050  13.448000  23.899786   # H_
 465 1 2  -0.524682  11.514178  13.448000  23.329590   # O_3
 466 1 2  -0.472380   9.881590  13.448000  24.962178   # O_3
 467 1 5  -0.371890  11.154309  13.447462  19.372113   # F_
 468 1 5  -0.406516  11.819985  12.299810  21.216103   # F_
 469 1 5  -0.407335  11.820523  14.595114  21.215834   # F_
 470 1 5  -0.450038   2.118060  11.824020  19.035375   # F_
 471 1 5  -0.445486   1.397516  13.967631  19.215578   # F_
 472 1 5  -0.410233   2.415530  13.024926  20.905723   # F_
 473 1 2  -0.532911  23.329590  13.448000  15.381822   # O_3
 474 1 3   0.454327  23.743789  13.448000  16.600211   # C_3
 475 1 2  -0.471733  24.962178  13.448000  17.014410   # O_3
 476 1 3  -0.012617  22.686776  13.448000  17.657224   # C_3
 477 1 3   0.022035  21.360803  13.448000  17.339851   # C_3
 478 1 3   0.006401  23.004149  13.448000  18.983197   # C_3
 479 1 3  -0.043936  20.387168  13.448000  18.275832   # C_3
 480 1 4   0.146034  21.116050  13.448000  16.444214   # H_
 481 1 3  -0.031007  22.068168  13.448000  19.956832   # C_3
 482 1 3   0.779850  24.507097  13.840682  19.519772   # C_3
 483 1 3   0.061847  20.691093  13.448000  19.652907   # C_3
 484 1 3   0.055431  19.652907  13.448000  20.691093   # C_3
 485 1 4   0.111062  19.496910  13.448000  18.006872   # H_
 486 1 3  -0.030771  18.275832  13.448000  20.387168   # C_3
 487 1 4   0.142651  22.337128  13.448000  20.847090   # H_