 (written by mofun)

960 atoms
0 bonds
0 angles
0 dihedrals
0 impropers

5 atom types
   0.000000  20.700400 xlo xhi
   0.000000  20.700400 ylo yhi
   0.000000  20.700400 zlo zhi

Masses

 1 91.2240   # Zr3+4
 2 15.9994   # O_3
 3 12.0107   # C_3
 4 14.0067   # N_3
 5 1.0079   # H_

Pair Coeffs

 1   0.069000   2.783168 # Zr3+4
 2   0.060000   3.118146 # O_3
 3   0.105000   3.430851 # C_3
 4   0.069000   3.260689 # N_3
 5   0.044000   2.571134 # H_

Atoms

 1 1 1   3.172780   2.481771   0.000000   0.000000   # Zr3+4
 2 1 1   3.190460   2.481771  10.350200  10.350200   # Zr3+4
 3 1 1   3.179180  12.831971   0.000000  10.350200   # Zr3+4
 4 1 1   3.182870  12.831971  10.350200   0.000000   # Zr3+4
 5 1 1   3.171230  18.218629   0.000000   0.000000   # Zr3+4
 6 1 1   3.190850  18.218629  10.350200  10.350200   # Zr3+4
 7 1 1   3.181050   7.868429   0.000000  10.350200   # Zr3+4
 8 1 1   3.180640   7.868429  10.350200   0.000000   # Zr3+4
 9 1 1   3.172620   0.000000   2.481771   0.000000   # Zr3+4
 10 1 1   3.146540   0.000000  12.831971  10.350200   # Zr3+4
 11 1 1   3.190280  10.350200   2.481771  10.350200   # Zr3+4
 12 1 1   3.182890  10.350200  12.831971   0.000000   # Zr3+4
 13 1 1   3.171150   0.000000  18.218629   0.000000   # Zr3+4
 14 1 1   3.213570   0.000000   7.868429  10.350200   # Zr3+4
 15 1 1   3.190840  10.350200  18.218629  10.350200   # Zr3+4
 16 1 1   3.181040  10.350200   7.868429   0.000000   # Zr3+4
 17 1 1   3.202860   0.000000   0.000000   2.481771   # Zr3+4
 18 1 1   3.179190   0.000000  10.350200  12.831971   # Zr3+4
 19 1 1   3.146810  10.350200   0.000000  12.831971   # Zr3+4
 20 1 1   3.190910  10.350200  10.350200   2.481771   # Zr3+4
 21 1 1   3.138250   0.000000   0.000000  18.218629   # Zr3+4
 22 1 1   3.180900   0.000000  10.350200   7.868429   # Zr3+4
 23 1 1   3.213640  10.350200   0.000000   7.868429   # Zr3+4
 24 1 1   3.191370  10.350200  10.350200  18.218629   # Zr3+4
 25 1 2  -1.309850   1.161292   9.188908   9.188908   # O_3
 26 1 2  -1.232900  11.511492  19.539108   9.188908   # O_3
 27 1 2  -1.345760  11.511492   9.188908  19.539108   # O_3
 28 1 2  -1.309340   9.188908   1.161292   9.188908   # O_3
 29 1 2  -1.346240   9.188908  11.511492  19.539108   # O_3
 30 1 2  -1.197310  19.539108  19.539108   1.161292   # O_3
 31 1 2  -1.232330  19.539108   9.188908  11.511492   # O_3
 32 1 2  -1.349120   1.161292   1.161292   1.161292   # O_3
 33 1 2  -1.411640  11.511492  11.511492   1.161292   # O_3
 34 1 2  -1.359690  19.539108   1.161292   1.161292   # O_3
 35 1 2  -1.456640  19.539108  11.511492  11.511492   # O_3
 36 1 2  -1.533500   9.188908   1.161292  11.511492   # O_3
 37 1 2  -1.419080   9.188908  11.511492   1.161292   # O_3
 38 1 2  -1.360740   1.161292  19.539108   1.161292   # O_3
 39 1 2  -1.403870   1.161292   9.188908  11.511492   # O_3
 40 1 2  -1.457930  11.511492  19.539108  11.511492   # O_3
 41 1 2  -1.419070  11.511492   9.188908   1.161292   # O_3
 42 1 2  -1.344010  19.539108  19.539108  19.539108   # O_3
 43 1 2  -1.316900  19.539108   9.188908   9.188908   # O_3
 44 1 2  -1.317930   9.188908  19.539108   9.188908   # O_3
 45 1 2  -1.350300   9.188908   9.188908  19.539108   # O_3
 46 1 2  -1.497320   1.161292   1.161292  19.539108   # O_3
 47 1 2  -1.533770   1.161292  11.511492   9.188908   # O_3
 48 1 2  -1.403830  11.511492   1.161292   9.188908   # O_3
 49 1 3   0.529733   3.179581   0.000000  17.520819   # C_3
 50 1 2  -0.740868   3.528590   0.000000  18.727859   # O_3
 51 1 2  -0.801402   1.972541   0.000000  17.171810   # O_3
 52 1 3  -0.166004   4.243582   0.000000  16.456818   # C_3
 53 1 3   0.019141   3.816533   0.000000  15.162836   # C_3
 54 1 4  -0.097441   2.644062  19.816493  14.784019   # N_3
 55 1 5   0.002180   4.580585   0.000000  13.051809   # H_
 56 1 3   0.004264   4.812636   0.000000  14.167768   # C_3
 57 1 3  -0.198237   6.106618   0.000000  14.593782   # C_3
 58 1 3   0.078432   6.532632   0.000000  15.887764   # C_3
 59 1 3  -0.024671   5.537564   0.000000  16.883867   # C_3
 60 1 5   0.029055   5.769615   0.000000  17.999826   # H_
 61 1 4  -0.152602   7.738845   0.789720  16.312950   # N_3
 62 1 2  -0.793025   8.377452   0.000000  13.878790   # O_3
 63 1 3   0.548113   7.170619   0.000000  13.529781   # C_3
 64 1 2  -0.787126   6.821610   0.000000  12.322741   # O_3
 65 1 5   0.100392   1.670315  20.178129  15.040911   # H_
 66 1 3  -0.014922   2.857483  18.421286  15.246259   # C_3
 67 1 5   0.031100   2.128829  17.790959  14.706392   # H_
 68 1 5   0.042570   2.651307  18.406589  16.340068   # H_
 69 1 3  -0.027515   4.269665  17.750386  15.018968   # C_3
 70 1 5   0.067911   5.085467  18.254441  15.608516   # H_
 71 1 3  -0.158481   4.633785  17.454370  13.585052   # C_3
 72 1 5   0.026461   4.192659  16.675000  15.410206   # H_
 73 1 5   0.062086   5.732355  17.405103  13.504320   # H_
 74 1 5   0.080821   4.303199  18.177228  12.879789   # H_
 75 1 5   0.053531   4.150844  16.518712  13.236250   # H_
 76 1 3  -0.033013   7.634308   2.260898  16.125612   # C_3
 77 1 5   0.057232   8.648834   0.422288  16.001823   # H_
 78 1 5   0.035163   8.300653   2.720447  16.853231   # H_
 79 1 3  -0.035015   6.311759   2.961399  16.382297   # C_3
 80 1 5   0.047370   7.956406   2.532280  15.111499   # H_
 81 1 5   0.044873   5.596974   2.489844  15.679725   # H_
 82 1 5   0.029089   6.420850   4.036578  16.078208   # H_
 83 1 3  -0.167091   5.701097   2.864107  17.769223   # C_3
 84 1 5   0.084264   5.742912   3.893952  18.197101   # H_
 85 1 5   0.078749   6.267253   2.239576  18.478626   # H_
 86 1 5   0.087251   4.682637   2.495019  17.836707   # H_
 87 1 3   0.552585   3.179581  10.350200   7.170619   # C_3
 88 1 2  -0.663141   3.528590  10.350200   8.377659   # O_3
 89 1 2  -0.672064   1.972541  10.350200   6.821610   # O_3
 90 1 3  -0.165614   4.243582  10.350200   6.106618   # C_3
 91 1 3   0.087801   3.816533  10.350200   4.812636   # C_3
 92 1 4  -0.143865   2.570162   9.491340   4.423261   # N_3
 93 1 5   0.035704   4.580585  10.350200   2.701609   # H_
 94 1 3   0.001635   4.812636  10.350200   3.817568   # C_3
 95 1 3  -0.182286   6.106618  10.350200   4.243582   # C_3
 96 1 3   0.102824   6.532632  10.350200   5.537564   # C_3
 97 1 3  -0.009462   5.537564  10.350200   6.533667   # C_3
 98 1 5   0.042984   5.769615  10.350200   7.649626   # H_
 99 1 4  -0.156416   7.814815  10.973903   5.919072   # N_3
 100 1 2  -0.750906   8.377452  10.350200   3.528590   # O_3
 101 1 3   0.549210   7.170619  10.350200   3.179581   # C_3
 102 1 2  -0.760847   6.821610  10.350200   1.972541   # O_3
 103 1 5   0.066029   1.643819   9.818821   4.772477   # H_
 104 1 3  -0.041568   2.777787   8.059908   4.801665   # C_3
 105 1 5   0.042442   2.014977   7.530806   4.357020   # H_
 106 1 5   0.047140   2.660001   7.981660   5.910378   # H_
 107 1 3  -0.038134   4.109236   7.428339   4.515171   # C_3
 108 1 5   0.041064   4.912205   7.969861   4.990038   # H_
 109 1 3  -0.152801   4.539391   7.109759   3.123897   # C_3
 110 1 5   0.027648   4.040511   6.451694   5.031439   # H_
 111 1 5   0.056335   3.678875   7.212847   2.434160   # H_
 112 1 5   0.056507   4.875565   6.057558   3.062624   # H_
 113 1 5   0.054263   5.344843   7.800946   2.846719   # H_
 114 1 3  -0.026172   7.806949  12.407199   5.618296   # C_3
 115 1 5   0.087690   8.596876  10.425756   5.594490   # H_
 116 1 5   0.034524   8.394633  12.879582   6.393733   # H_
 117 1 3  -0.046049   6.431407  13.190502   5.660524   # C_3
 118 1 5   0.048239   8.247246  12.619999   4.635648   # H_
 119 1 5   0.045067   5.557643  12.631798   5.211947   # H_
 120 1 5   0.032780   6.540084  14.143962   5.121693   # H_
 121 1 3  -0.147353   5.981381  13.579876   7.063804   # C_3
 122 1 5   0.065382   6.319211  12.805474   7.759959   # H_
 123 1 5   0.060734   4.877842  13.636388   7.073327   # H_
 124 1 5   0.055832   6.428923  14.585502   7.374725   # H_
 125 1 3   0.537533  13.529781   0.000000   7.170619   # C_3
 126 1 2  -0.700773  13.878790   0.000000   8.377659   # O_3
 127 1 2  -0.699642  12.322741   0.000000   6.821610   # O_3
 128 1 3  -0.166712  14.593782   0.000000   6.106618   # C_3
 129 1 3   0.022958  14.166733   0.000000   4.812636   # C_3
 130 1 4  -0.106826  13.019517  19.765777   4.407115   # N_3
 131 1 5   0.000922  14.930785   0.000000   2.701609   # H_
 132 1 3   0.002900  15.162629   0.000000   3.817568   # C_3
 133 1 3  -0.191883  16.456611   0.000000   4.243582   # C_3
 134 1 3   0.086498  16.882832   0.000000   5.537564   # C_3
 135 1 3  -0.024014  15.887764   0.000000   6.533667   # C_3
 136 1 5   0.023549  16.119815   0.000000   7.649626   # H_
 137 1 4  -0.145403  18.162117   0.653098   5.949502   # N_3
 138 1 2  -0.651941  18.727652   0.000000   3.528590   # O_3
 139 1 3   0.545591  17.520612   0.000000   3.179581   # C_3
 140 1 2  -0.710008  17.171603   0.000000   1.972541   # O_3
 141 1 5   0.127360  12.103317  19.982096   4.742876   # H_
 142 1 3  -0.012645  13.228384  18.322752   4.737494   # C_3
 143 1 5   0.030987  12.551274  17.843952   4.018362   # H_
 144 1 5   0.048523  12.834455  18.017628   5.734218   # H_
 145 1 3  -0.032171  14.647396  17.708157   4.572511   # C_3
 146 1 5   0.077014  15.496112  18.306399   5.039512   # H_
 147 1 3  -0.158566  14.957074  17.358527   3.119550   # C_3
 148 1 5   0.029755  14.587365  16.746624   5.147568   # H_
 149 1 5   0.080718  14.618622  18.165015   2.449892   # H_
 150 1 5   0.061933  14.447844  16.422869   2.857690   # H_
 151 1 5   0.077029  16.038877  17.213832   3.044201   # H_
 152 1 3  -0.031703  18.170397   2.101298   5.638375   # C_3
 153 1 5   0.068573  19.021805   0.056305   5.717243   # H_
 154 1 5   0.057220  18.842125   2.511166   6.396217   # H_
 155 1 3  -0.037993  16.825906   2.881082   5.798389   # C_3
 156 1 5   0.077138  18.550042   2.282219   4.603562   # H_
 157 1 5   0.042160  15.993750   2.483427   5.135976   # H_
 158 1 5   0.034899  17.077416   3.940735   5.469253   # H_
 159 1 3  -0.143853  16.469859   3.160951   7.251557   # C_3
 160 1 5   0.066939  15.710155   2.448857   7.681090   # H_
 161 1 5   0.056803  16.062889   4.194936   7.327942   # H_
 162 1 5   0.052521  17.383989   3.194486   7.903620   # H_
 163 1 3   0.537771  13.529781  10.350200  17.520819   # C_3
 164 1 2  -0.708021  13.878790  10.350200  18.727859   # O_3
 165 1 2  -0.742756  12.322741  10.350200  17.171810   # O_3
 166 1 3  -0.169095  14.593782  10.350200  16.456818   # C_3
 167 1 3   0.098054  14.166733  10.350200  15.162836   # C_3
 168 1 4  -0.158552  12.941890   9.621546  14.754003   # N_3
 169 1 5   0.039473  14.930785  10.350200  13.051809   # H_
 170 1 3  -0.003736  15.162629  10.350200  14.167768   # C_3
 171 1 3  -0.166021  16.456611  10.350200  14.593782   # C_3
 172 1 3   0.109979  16.882832  10.350200  15.887764   # C_3
 173 1 3  -0.005354  15.887764  10.350200  16.883867   # C_3
 174 1 5   0.048813  16.119815  10.350200  17.999826   # H_
 175 1 4  -0.146497  18.104156  11.110112  16.245053   # N_3
 176 1 2  -0.617933  18.727652  10.350200  13.878790   # O_3
 177 1 3   0.546054  17.520612  10.350200  13.529781   # C_3
 178 1 2  -0.661458  17.171603  10.350200  12.322741   # O_3
 179 1 5   0.091943  12.128778  10.039280  15.135097   # H_
 180 1 3  -0.026764  12.984947   8.166308  15.090799   # C_3
 181 1 5   0.033466  12.329365   7.655629  14.365457   # H_
 182 1 5   0.045984  12.686033   7.915626  16.117124   # H_
 183 1 3  -0.051280  14.337097   7.433514  14.863301   # C_3
 184 1 5   0.050619  15.074031   7.943157  15.560905   # H_
 185 1 3  -0.135377  14.915673   7.242863  13.450499   # C_3
 186 1 5   0.031843  14.221175   6.418366  15.212310   # H_
 187 1 5   0.055317  16.054195   6.983073  13.495833   # H_
 188 1 5   0.066653  14.783398   8.136085  12.835283   # H_
 189 1 5   0.050702  14.395058   6.384003  12.953482   # H_
 190 1 3  -0.029812  18.054061  12.551481  16.165149   # C_3
 191 1 5   0.105622  19.004209  10.617649  16.411898   # H_
 192 1 5   0.049645  18.610281  12.930298  16.985299   # H_
 193 1 3  -0.040615  16.670239  13.284275  16.092698   # C_3
 194 1 5   0.078279  18.552526  12.852878  15.232596   # H_
 195 1 5   0.041116  15.873895  12.847289  15.465062   # H_
 196 1 5   0.036034  16.884488  14.270649  15.645362   # H_
 197 1 3  -0.157322  16.119401  13.608650  17.468447   # C_3
 198 1 5   0.070537  15.425731  12.860331  17.942900   # H_
 199 1 5   0.066850  15.587608  14.537477  17.289595   # H_
 200 1 5   0.078108  16.946382  13.850224  18.150111   # H_
 201 1 3   0.520859  17.520819   0.000000  17.520819   # C_3
 202 1 2  -0.742011  17.171810   0.000000  18.727859   # O_3
 203 1 2  -0.741743  18.727859   0.000000  17.171810   # O_3
 204 1 3  -0.155596  16.456818   0.000000  16.456818   # C_3
 205 1 3   0.013662  16.883867   0.000000  15.162836   # C_3
 206 1 4  -0.079965  18.171639  19.952909  14.870546   # N_3
 207 1 5   0.003163  16.119815   0.000000  13.051809   # H_
 208 1 3  -0.007925  15.887971   0.000000  14.167768   # C_3
 209 1 3  -0.191439  14.593989   0.000000  14.593782   # C_3
 210 1 3   0.063193  14.167768   0.000000  15.887764   # C_3
 211 1 3  -0.030765  15.162836   0.000000  16.883867   # C_3
 212 1 5   0.015198  14.930785   0.000000  17.999826   # H_
 213 1 4  -0.111340  12.785188   0.541522  16.163286   # N_3
 214 1 2  -0.791374  12.322948   0.000000  13.878790   # O_3
 215 1 3   0.539075  13.529988   0.000000  13.529781   # C_3
 216 1 2  -0.790160  13.878997   0.000000  12.322741   # O_3
 217 1 5   0.108353  18.009762  18.941487  15.070926   # H_
 218 1 3  -0.001268  18.870692  20.237746  13.646739   # C_3
 219 1 5   0.070782  18.221527  20.398174  12.845219   # H_
 220 1 5   0.064550  19.413663  19.320718  13.414066   # H_
 221 1 3   0.091141  19.894533   0.641091  13.871752   # C_3
 222 1 5   0.015788  19.343489   1.576749  13.698697   # H_
 223 1 3  -0.602478   0.296637   0.527446  12.856811   # C_3
 224 1 5   0.014160  20.315994   0.627843  14.896422   # H_
 225 1 5   0.202293  20.584064   0.419804  11.888861   # H_
 226 1 5   0.192534   0.814354  20.269004  13.074166   # H_
 227 1 5   0.115457   1.008523   1.413216  12.894072   # H_
 228 1 3  -0.355383  12.285687   0.257099  17.442778   # C_3
 229 1 5   0.066534  12.718947   1.567434  15.949037   # H_
 230 1 5   0.171094  12.764281  20.077318  17.861754   # H_
 231 1 3   0.313639  10.815338  20.660862  17.141380   # C_3
 232 1 5   0.090403  12.480685   1.160464  18.011832   # H_
 233 1 5  -0.019114  10.679129  20.237125  16.112777   # H_
 234 1 5  -0.098915  10.251252   0.922203  17.250885   # H_
 235 1 3  -0.345627  10.381251  19.662482  18.137276   # C_3
 236 1 5   0.115082  10.977836  18.796170  18.141417   # H_
 237 1 5   0.126873   9.339813  19.426704  17.923441   # H_
 238 1 5   0.135550  10.524497  20.182062  19.087011   # H_
 239 1 3   0.533008  17.520819  10.350200   7.170619   # C_3
 240 1 2  -0.738896  17.171810  10.350200   8.377659   # O_3
 241 1 2  -0.693384  18.727859  10.350200   6.821610   # O_3
 242 1 3  -0.157580  16.456818  10.350200   6.106618   # C_3
 243 1 3   0.081076  16.883867  10.350200   4.812636   # C_3
 244 1 4  -0.120471  18.157149   9.493410   4.564231   # N_3
 245 1 5   0.030811  16.119815  10.350200   2.701609   # H_
 246 1 3  -0.004786  15.887971  10.350200   3.817568   # C_3
 247 1 3  -0.171169  14.593989  10.350200   4.243582   # C_3
 248 1 3   0.095973  14.167768  10.350200   5.537564   # C_3
 249 1 3  -0.016423  15.162836  10.350200   6.533667   # C_3
 250 1 5   0.038547  14.930785  10.350200   7.649626   # H_
 251 1 4  -0.142939  12.857639  11.035590   5.813914   # N_3
 252 1 2  -0.653852  12.322948  10.350200   3.528590   # O_3
 253 1 3   0.552161  13.529988  10.350200   3.179581   # C_3
 254 1 2  -0.672242  13.878997  10.350200   1.972541   # O_3
 255 1 5   0.086076  17.808968   8.510969   4.495506   # H_
 256 1 3  -0.103236  18.922029   9.762309   3.344978   # C_3
 257 1 5   0.037283  18.339105   9.807229   2.432090   # H_
 258 1 5   0.084266  19.619425   8.909452   3.260106   # H_
 259 1 3   0.149086  19.859757  10.899796   3.508097   # C_3
 260 1 5   0.007274  19.276005  11.820549   3.364643   # H_
 261 1 3  -0.444016   0.311334  10.880751   2.564159   # C_3
 262 1 5   0.029559  20.252857  10.890066   4.531732   # H_
 263 1 5   0.157047  20.627121  10.753444   1.530795   # H_
 264 1 5   0.093699   0.951390   9.992290   2.816289   # H_
 265 1 5   0.092296   0.913302  11.819100   2.693122   # H_
 266 1 3  -0.022721  12.162106  10.426377   6.899236   # C_3
 267 1 5   0.077490  12.990536  12.063986   5.923212   # H_
 268 1 5   0.029584  12.573630   9.425513   7.061527   # H_
 269 1 3  -0.043812  10.724877  10.183148   6.560992   # C_3
 270 1 5   0.022335  12.243666  11.041800   7.818955   # H_
 271 1 5   0.014817  10.691757   9.683647   5.574618   # H_
 272 1 5   0.030432  10.236555  11.166003   6.538635   # H_
 273 1 3  -0.156218  10.084200   9.391978   7.674673   # C_3
 274 1 5   0.053074  10.806230   8.537673   7.931358   # H_
 275 1 5   0.053584   9.088718   9.015645   7.300410   # H_
 276 1 5   0.053748  10.048181   9.994774   8.530014   # H_
 277 1 3   0.533336   7.170619   0.000000   7.170619   # C_3
 278 1 2  -0.701087   6.821610   0.000000   8.377659   # O_3
 279 1 2  -0.682637   8.377659   0.000000   6.821610   # O_3
 280 1 3  -0.157379   6.106618   0.000000   6.106618   # C_3
 281 1 3   0.012269   6.533667   0.000000   4.812636   # C_3
 282 1 4  -0.021811   7.899894  20.152046   4.462178   # N_3
 283 1 5   0.001645   5.769615   0.000000   2.701609   # H_
 284 1 3   0.000490   5.537564   0.000000   3.817568   # C_3
 285 1 3  -0.191148   4.243582   0.000000   4.243582   # C_3
 286 1 3   0.072221   3.817568   0.000000   5.537564   # C_3
 287 1 3  -0.026905   4.812636   0.000000   6.533667   # C_3
 288 1 5   0.019823   4.580585   0.000000   7.649626   # H_
 289 1 4  -0.147405   2.520895   0.784752   5.828819   # N_3
 290 1 2  -0.693439   1.972748   0.000000   3.528590   # O_3
 291 1 3   0.551179   3.179581   0.000000   3.179581   # C_3
 292 1 2  -0.710893   3.528590   0.000000   1.972541   # O_3
 293 1 5   0.081015   7.925976  19.113507   4.288502   # H_
 294 1 3  -0.231006   8.546160   0.095015   3.358640   # C_3
 295 1 5   0.074562   8.179763   1.057376   3.175234   # H_
 296 1 5   0.132138   8.393598  20.176059   2.451962   # H_
 297 1 3  -0.093983   9.981940   0.055063   3.673286   # C_3
 298 1 5  -0.000899  10.165966   0.346732   4.729627   # H_
 299 1 3  -0.151573  10.845975   0.859895   2.810907   # C_3
 300 1 5   0.095838  10.350407  19.739901   3.486154   # H_
 301 1 5  -0.000886  10.822583   0.312990   1.874214   # H_
 302 1 5   0.035559  11.887412   1.039367   3.162400   # H_
 303 1 5   0.058945  10.337780   1.818944   2.745908   # H_
 304 1 3  -0.049888   1.943147   0.576506   7.100858   # C_3
 305 1 5   0.078105   2.767436   1.814597   5.730906   # H_
 306 1 5  -0.001515   2.621292   0.129170   7.778589   # H_
 307 1 3  -0.185686   0.948699  20.141903   6.923663   # C_3
 308 1 5  -0.000109   1.616908   1.565985   7.495822   # H_
 309 1 5   0.063736   1.310749  19.132345   7.219679   # H_
 310 1 5   0.077849   0.564293  20.114165   5.864423   # H_
 311 1 3   0.336866  20.597105  20.501055   7.830754   # C_3
 312 1 5  -0.011291  19.862862  19.679249   7.756440   # H_
 313 1 5  -0.080954  20.151632   0.761361   7.591872   # H_
 314 1 5  -0.100657   0.312369  20.486979   8.803259   # H_
 315 1 3   0.544213   7.170619  10.350200  17.520819   # C_3
 316 1 2  -0.635802   6.821610  10.350200  18.727859   # O_3
 317 1 2  -0.650490   8.377659  10.350200  17.171810   # O_3
 318 1 3  -0.161583   6.106618  10.350200  16.456818   # C_3
 319 1 3   0.089428   6.533667  10.350200  15.162836   # C_3
 320 1 4  -0.137390   7.892649   9.708902  14.881518   # N_3
 321 1 5   0.039453   5.769615  10.350200  13.051809   # H_
 322 1 3  -0.010504   5.537564  10.350200  14.167768   # C_3
 323 1 3  -0.167874   4.243582  10.350200  14.593782   # C_3
 324 1 3   0.088571   3.817568  10.350200  15.887764   # C_3
 325 1 3  -0.009375   4.812636  10.350200  16.883867   # C_3
 326 1 5   0.042555   4.580585  10.350200  17.999826   # H_
 327 1 4  -0.138309   2.484462  11.111147  16.150245   # N_3
 328 1 2  -0.743385   1.972748  10.350200  13.878790   # O_3
 329 1 3   0.541566   3.179581  10.350200  13.529781   # C_3
 330 1 2  -0.744794   3.528590  10.350200  12.322741   # O_3
 331 1 5   0.075846   7.758303   8.660012  14.877170   # H_
 332 1 3  -0.036058   8.347229  10.204055  13.556485   # C_3
 333 1 5   0.028604   7.763892  10.975559  13.088863   # H_
 334 1 5   0.026070   8.404776   9.354304  12.846461   # H_
 335 1 3  -0.037959   9.676402  10.885305  13.717120   # C_3
 336 1 5   0.029726   9.611610  11.893208  13.322156   # H_
 337 1 3  -0.158214  10.823618  10.153753  13.047462   # C_3
 338 1 5   0.023255   9.893342  10.963139  14.836805   # H_
 339 1 5   0.050873  10.594258   9.921909  11.989879   # H_
 340 1 5   0.059522  10.892964   9.235897  13.639287   # H_
 341 1 5   0.056982  11.749133  10.787599  13.130885   # H_
 342 1 3  -0.058313   1.764502  10.883649  17.438224   # C_3
 343 1 5   0.070644   2.721896  12.126708  16.173223   # H_
 344 1 5   0.036445   2.474319  10.823825  18.252992   # H_
 345 1 3   0.008220   1.027568   9.615336  17.373639   # C_3
 346 1 5   0.010480   1.144939  11.739818  17.693460   # H_
 347 1 5   0.029269   1.710474   8.887510  16.961701   # H_
 348 1 5  -0.019380   0.194377   9.785700  16.672723   # H_
 349 1 3  -0.294639   0.465138   9.127220  18.683974   # C_3
 350 1 5   0.081006   0.943524   8.183075  19.013731   # H_
 351 1 5   0.145565  20.063863   8.851491  18.454200   # H_
 352 1 5   0.060914   0.537589   9.863948  19.493360   # H_
 353 1 3   0.530285  17.520819   3.179581   0.000000   # C_3
 354 1 2  -0.732331  18.727859   3.528590   0.000000   # O_3
 355 1 2  -0.785614  17.171810   1.972541   0.000000   # O_3
 356 1 3  -0.165428  16.456818   4.243582   0.000000   # C_3
 357 1 3   0.029768  15.162836   3.816533   0.000000   # C_3
 358 1 4  -0.108330  14.786503   2.647995  19.803659   # N_3
 359 1 5   0.001313  13.051809   4.580585   0.000000   # H_
 360 1 3   0.001046  14.167768   4.812636   0.000000   # C_3
 361 1 3  -0.190775  14.593782   6.106618   0.000000   # C_3
 362 1 3   0.080313  15.887764   6.532632   0.000000   # C_3
 363 1 3  -0.020119  16.883867   5.537564   0.000000   # C_3
 364 1 5   0.029902  17.999826   5.769615   0.000000   # H_
 365 1 4  -0.145478  16.293078   7.748367   0.836503   # N_3
 366 1 2  -0.696913  13.878790   8.377452   0.000000   # O_3
 367 1 3   0.551898  13.529781   7.170619   0.000000   # C_3
 368 1 2  -0.704864  12.322741   6.821610   0.000000   # O_3
 369 1 5   0.098664  15.123298   1.693293  20.057446   # H_
 370 1 3  -0.014953  15.070926   2.952498  18.369328   # C_3
 371 1 5   0.027533  14.410997   2.350737  17.760736   # H_
 372 1 5   0.035318  16.115468   2.620878  18.122579   # H_
 373 1 3  -0.034247  14.879448   4.335906  17.794892   # C_3
 374 1 5   0.069855  15.518055   5.131422  18.314679   # H_
 375 1 3  -0.161912  13.416343   4.773719  17.602792   # C_3
 376 1 5   0.027967  15.203202   4.259521  16.759872   # H_
 377 1 5   0.058558  12.972113   3.971993  16.999789   # H_
 378 1 5   0.067635  13.375149   5.724075  17.057337   # H_
 379 1 5   0.096100  12.853913   4.861903  18.528100   # H_
 380 1 3  -0.030713  15.848019   7.652317   2.223844   # C_3
 381 1 5   0.048896  16.161216   8.696031   0.400967   # H_
 382 1 5   0.037873  16.613520   8.198393   2.734523   # H_
 383 1 3  -0.043020  15.730234   6.282571   3.003007   # C_3
 384 1 5   0.048703  14.891247   8.152646   2.327760   # H_
 385 1 5   0.043799  14.963698   5.646655   2.568920   # H_
 386 1 5   0.030952  15.434218   6.456041   4.074667   # H_
 387 1 3  -0.150645  17.011589   5.463043   3.269007   # C_3
 388 1 5   0.081296  17.646884   5.281293   2.382409   # H_
 389 1 5   0.060857  16.615590   4.460729   3.532937   # H_
 390 1 5   0.073866  17.679798   5.871254   4.093297   # H_
 391 1 3   0.541364  17.520819  13.529781  10.350200   # C_3
 392 1 2  -0.714259  18.727859  13.878790  10.350200   # O_3
 393 1 2  -0.739280  17.171810  12.322741  10.350200   # O_3
 394 1 3  -0.167190  16.456818  14.593782  10.350200   # C_3
 395 1 3   0.098429  15.162836  14.166733  10.350200   # C_3
 396 1 4  -0.154318  14.771598  12.975425   9.514732   # N_3
 397 1 5   0.039434  13.051809  14.930785  10.350200   # H_
 398 1 3  -0.004347  14.167768  15.162629  10.350200   # C_3
 399 1 3  -0.164869  14.593782  16.456611  10.350200   # C_3
 400 1 3   0.099958  15.887764  16.882832  10.350200   # C_3
 401 1 3  -0.003088  16.883867  15.887764  10.350200   # C_3
 402 1 5   0.045545  17.999826  16.119815  10.350200   # H_
 403 1 4  -0.144034  16.237601  18.111194  11.196225   # N_3
 404 1 2  -0.625631  13.878790  18.727652  10.350200   # O_3
 405 1 3   0.544328  13.529781  17.520612  10.350200   # C_3
 406 1 2  -0.661061  12.322741  17.171603  10.350200   # O_3
 407 1 5   0.082448  15.007997  12.077027   9.924393   # H_
 408 1 3  -0.024431  15.209205  13.130678   8.101516   # C_3
 409 1 5   0.034910  14.526299  12.491035   7.591872   # H_
 410 1 5   0.025086  16.194751  12.628900   7.993045   # H_
 411 1 3  -0.057022  15.078171  14.602476   7.399358   # C_3
 412 1 5   0.052848  15.579949  15.353487   7.987249   # H_
 413 1 3  -0.132985  13.681515  15.156626   7.176001   # C_3
 414 1 5   0.033553  15.604997  14.601234   6.435961   # H_
 415 1 5   0.062121  12.896970  14.794990   7.916661   # H_
 416 1 5   0.053272  13.313669  14.917950   6.150710   # H_
 417 1 5   0.060395  13.709254  16.281900   7.311588   # H_
 418 1 3  -0.033818  15.837876  17.925304  12.606130   # C_3
 419 1 5   0.103817  15.999960  19.050371  10.767106   # H_
 420 1 5   0.061670  16.517677  18.545488  13.164419   # H_
 421 1 3  -0.036722  15.914468  16.514572  13.201680   # C_3
 422 1 5   0.071423  14.802856  18.335172  12.719154   # H_
 423 1 5   0.041404  15.209826  15.775154  12.754551   # H_
 424 1 5   0.036556  15.594232  16.649539  14.252225   # H_
 425 1 3  -0.156122  17.337413  16.007412  13.460849   # C_3
 426 1 5   0.080197  17.951180  16.351453  12.619792   # H_
 427 1 5   0.071927  17.321888  14.879448  13.456502   # H_
 428 1 5   0.080701  17.794892  16.321644  14.423832   # H_
 429 1 3   0.555755   7.170619   3.179581  10.350200   # C_3
 430 1 2  -0.666747   8.377659   3.528590  10.350200   # O_3
 431 1 2  -0.673608   6.821610   1.972541  10.350200   # O_3
 432 1 3  -0.172671   6.106618   4.243582  10.350200   # C_3
 433 1 3   0.098155   4.812636   3.816533  10.350200   # C_3
 434 1 4  -0.153882   4.458038   2.550496   9.628998   # N_3
 435 1 5   0.040916   2.701609   4.580585  10.350200   # H_
 436 1 3  -0.008954   3.817568   4.812636  10.350200   # C_3
 437 1 3  -0.164536   4.243582   6.106618  10.350200   # C_3
 438 1 3   0.093674   5.537564   6.532632  10.350200   # C_3
 439 1 3  -0.005458   6.533667   5.537564  10.350200   # C_3
 440 1 5   0.035749   7.649626   5.769615  10.350200   # H_
 441 1 4  -0.140202   5.845172   7.786662  11.121497   # N_3
 442 1 2  -0.654363   3.528590   8.377452  10.350200   # O_3
 443 1 3   0.548430   3.179581   7.170619  10.350200   # C_3
 444 1 2  -0.659351   1.972541   6.821610  10.350200   # O_3
 445 1 5   0.074261   4.687399   1.715028  10.130155   # H_
 446 1 3  -0.030799   4.831473   2.672215   8.222406   # C_3
 447 1 5   0.037395   4.159331   2.052238   7.687508   # H_
 448 1 5   0.049072   5.852417   2.248684   8.137327   # H_
 449 1 3  -0.046845   4.774961   4.103854   7.522525   # C_3
 450 1 5   0.046627   5.236166   4.909514   8.168378   # H_
 451 1 3  -0.142636   3.410598   4.637718   7.092164   # C_3
 452 1 5   0.032172   5.425989   4.061625   6.662010   # H_
 453 1 5   0.057098   2.681737   3.869112   7.273500   # H_
 454 1 5   0.053256   3.441441   4.745360   5.981588   # H_
 455 1 5   0.060252   3.081876   5.621194   7.596426   # H_
 456 1 3  -0.037823   5.701097   7.552748  12.598470   # C_3
 457 1 5   0.067664   6.835893   8.018921  10.971626   # H_
 458 1 5   0.036371   6.348192   8.201498  13.151171   # H_
 459 1 3  -0.044622   6.004979   6.112207  13.201266   # C_3
 460 1 5   0.049667   4.646619   7.791010  12.855983   # H_
 461 1 5   0.043138   5.457867   5.283570  12.708597   # H_
 462 1 5   0.030316   5.616433   6.161888  14.219519   # H_
 463 1 3  -0.158273   7.491268   5.823437  13.459193   # C_3
 464 1 5   0.066440   7.660597   4.748051  13.657503   # H_
 465 1 5   0.062151   7.812124   6.407809  14.309980   # H_
 466 1 5   0.065876   8.076675   6.136013  12.575700   # H_
 467 1 3   0.544638   7.170619  13.529781   0.000000   # C_3
 468 1 2  -0.698045   8.377659  13.878790   0.000000   # O_3
 469 1 2  -0.711437   6.821610  12.322741   0.000000   # O_3
 470 1 3  -0.173203   6.106618  14.593782   0.000000   # C_3
 471 1 3   0.032349   4.812636  14.166733   0.000000   # C_3
 472 1 4  -0.107292   4.419949  12.917257  20.011905   # N_3
 473 1 5   0.010436   2.701609  14.930785   0.000000   # H_
 474 1 3  -0.002782   3.817568  15.162629   0.000000   # C_3
 475 1 3  -0.190762   4.243582  16.456611   0.000000   # C_3
 476 1 3   0.084668   5.537564  16.882832   0.000000   # C_3
 477 1 3  -0.016275   6.533667  15.887764   0.000000   # C_3
 478 1 5   0.024487   7.649626  16.119815   0.000000   # H_
 479 1 4  -0.150504   5.957575  18.139761   0.744179   # N_3
 480 1 2  -0.736364   3.528590  18.727652   0.000000   # O_3
 481 1 3   0.539493   3.179581  17.520612   0.000000   # C_3
 482 1 2  -0.782259   1.972541  17.171603   0.000000   # O_3
 483 1 5   0.115623   4.677048  12.017203  20.444957   # H_
 484 1 3  -0.010556   4.700647  12.970871  18.545074   # C_3
 485 1 5   0.030943   3.981929  12.335575  18.042469   # H_
 486 1 5   0.055234   5.718693  12.617101  18.329376   # H_
 487 1 3  -0.060744   4.646619  14.324470  17.785577   # C_3
 488 1 5   0.079603   5.020054  15.142964  18.323787   # H_