 (written by mofun)

1088 atoms
0 bonds
0 angles
0 dihedrals
0 impropers

5 atom types
   0.000000  26.896000 xlo xhi
   0.000000  26.896000 ylo yhi
   0.000000  26.896000 zlo zhi

Masses

 1 91.2240   # Zr3+4
 2 15.9994   # O_3
 3 12.0107   # C_3
 4 1.0079   # H_
 5 14.0067   # N_3

Pair Coeffs

 1   0.069000   2.783168 # Zr3+4
 2   0.060000   3.118146 # O_3
 3   0.105000   3.430851 # C_3
 4   0.044000   2.571134 # H_
 5   0.069000   3.260689 # N_3

Atoms

 1 1 1   3.191560   2.475508   0.000000   0.000000   # Zr3+4
 2 1 1   3.190860  24.420492   0.000000   0.000000   # Zr3+4
 3 1 1   3.190110   0.000000   2.475508   0.000000   # Zr3+4
 4 1 1   3.189560   0.000000  24.420492   0.000000   # Zr3+4
 5 1 1   3.189600   0.000000   0.000000   2.475508   # Zr3+4
 6 1 1   3.189090   0.000000   0.000000  24.420492   # Zr3+4
 7 1 1   3.215100   2.475508  13.448000  13.448000   # Zr3+4
 8 1 1   3.213930  24.420492  13.448000  13.448000   # Zr3+4
 9 1 1   3.201240   0.000000  15.923508  13.448000   # Zr3+4
 10 1 1   3.201200   0.000000  10.972492  13.448000   # Zr3+4
 11 1 1   3.201340   0.000000  13.448000  15.923508   # Zr3+4
 12 1 1   3.201260   0.000000  13.448000  10.972492   # Zr3+4
 13 1 1   3.202600  15.923508   0.000000  13.448000   # Zr3+4
 14 1 1   3.202570  10.972492   0.000000  13.448000   # Zr3+4
 15 1 1   3.214910  13.448000   2.475508  13.448000   # Zr3+4
 16 1 1   3.213870  13.448000  24.420492  13.448000   # Zr3+4
 17 1 1   3.202760  13.448000   0.000000  15.923508   # Zr3+4
 18 1 1   3.202720  13.448000   0.000000  10.972492   # Zr3+4
 19 1 1   3.203090  15.923508  13.448000   0.000000   # Zr3+4
 20 1 1   3.203020  10.972492  13.448000   0.000000   # Zr3+4
 21 1 1   3.203020  13.448000  15.923508   0.000000   # Zr3+4
 22 1 1   3.202980  13.448000  10.972492   0.000000   # Zr3+4
 23 1 1   3.214700  13.448000  13.448000   2.475508   # Zr3+4
 24 1 1   3.213710  13.448000  13.448000  24.420492   # Zr3+4
 25 1 2  -1.322190   1.221078   1.221078   1.221078   # O_3
 26 1 2  -1.142980  25.674922  25.674922   1.221078   # O_3
 27 1 2  -1.146150  25.674922   1.221078  25.674922   # O_3
 28 1 2  -1.156510   1.221078  25.674922  25.674922   # O_3
 29 1 2  -1.239430   1.221078   1.221078  25.674922   # O_3
 30 1 2  -1.068430  25.674922  25.674922  25.674922   # O_3
 31 1 2  -1.236250   1.221078  25.674922   1.221078   # O_3
 32 1 2  -1.225980  25.674922   1.221078   1.221078   # O_3
 33 1 2  -1.273720   1.221078  14.669078  14.669078   # O_3
 34 1 2  -1.178170  25.674922  12.226922  14.669078   # O_3
 35 1 2  -1.178290  25.674922  14.669078  12.226922   # O_3
 36 1 2  -1.273950   1.221078  12.226922  12.226922   # O_3
 37 1 2  -1.274130   1.221078  14.669078  12.226922   # O_3
 38 1 2  -1.178310  25.674922  12.226922  12.226922   # O_3
 39 1 2  -1.274130   1.221078  12.226922  14.669078   # O_3
 40 1 2  -1.178870  25.674922  14.669078  14.669078   # O_3
 41 1 2  -1.270550  14.669078   1.221078  14.669078   # O_3
 42 1 2  -1.185530  12.226922  25.674922  14.669078   # O_3
 43 1 2  -1.270680  12.226922   1.221078  12.226922   # O_3
 44 1 2  -1.185560  14.669078  25.674922  12.226922   # O_3
 45 1 2  -1.271110  14.669078   1.221078  12.226922   # O_3
 46 1 2  -1.185850  12.226922  25.674922  12.226922   # O_3
 47 1 2  -1.186440  14.669078  25.674922  14.669078   # O_3
 48 1 2  -1.271120  12.226922   1.221078  14.669078   # O_3
 49 1 2  -1.269400  14.669078  14.669078   1.221078   # O_3
 50 1 2  -1.269650  12.226922  12.226922   1.221078   # O_3
 51 1 2  -1.187640  12.226922  14.669078  25.674922   # O_3
 52 1 2  -1.187530  14.669078  12.226922  25.674922   # O_3
 53 1 2  -1.188900  14.669078  14.669078  25.674922   # O_3
 54 1 2  -1.188310  12.226922  12.226922  25.674922   # O_3
 55 1 2  -1.270040  14.669078  12.226922   1.221078   # O_3
 56 1 2  -1.270030  12.226922  14.669078   1.221078   # O_3
 57 1 2  -0.681919   3.566410   0.000000   1.933822   # O_3
 58 1 3   0.515030   3.152211   0.000000   3.152211   # C_3
 59 1 2  -0.682925   1.933822   0.000000   3.566410   # O_3
 60 1 3  -0.245226   4.209224   0.000000   4.209224   # C_3
 61 1 3   0.149091   5.535197   0.000000   3.891851   # C_3
 62 1 3   0.149099   3.891851   0.000000   5.535197   # C_3
 63 1 3  -0.221225   6.508832   0.000000   4.827832   # C_3
 64 1 4  -0.037666   5.779950   0.000000   2.996214   # H_
 65 1 3  -0.216385   4.827832   0.000000   6.508832   # C_3
 66 1 4  -0.032844   2.996214   0.000000   5.779950   # H_
 67 1 3   0.116970   6.204907   0.000000   6.204907   # C_3
 68 1 3  -0.056094   7.243093   0.000000   7.243093   # C_3
 69 1 4   0.082061   7.399090   0.000000   4.558872   # H_
 70 1 3   0.024015   8.620168   0.000000   6.939168   # C_3
 71 1 4   0.077128   4.558872   0.000000   7.399090   # H_
 72 1 3  -0.068922   6.939168   0.000000   8.620168   # C_3
 73 1 3  -0.027229   9.556149   0.000000   7.912803   # C_3
 74 1 5  -0.152255   9.137378   0.497038   5.582803   # N_3
 75 1 3   0.011731   7.912803   0.000000   9.556149   # C_3
 76 1 4   0.018029   6.048910   0.000000   8.889128   # H_
 77 1 3  -0.127072   9.238776   0.000000   9.238776   # C_3
 78 1 3   0.468006  10.295789   0.000000  10.295789   # C_3
 79 1 4   0.039140  10.451786   0.000000   7.668050   # H_
 80 1 4   0.015399   7.668050   0.000000  10.451786   # H_
 81 1 2  -0.665112  11.514178   0.000000   9.881590   # O_3
 82 1 2  -0.666739   9.881590   0.000000  11.514178   # O_3
 83 1 4   0.079689   9.024415   1.532803   5.582534   # H_
 84 1 3  -0.132252  10.518757   0.149273   5.120460   # C_3
 85 1 3  -0.206489  10.782606   0.863093   3.760061   # C_3
 86 1 3   0.194349  10.692774  26.804554   2.538176   # C_3
 87 1 4  -0.119001  11.039463   0.501610   1.625594   # H_
 88 1 3  -0.107831   9.273741  26.236779   2.286698   # C_3
 89 1 4  -0.003141  11.448013  26.013273   2.679917   # H_
 90 1 4   0.129852  10.695732  25.947378   5.102978   # H_
 91 1 4   0.035759  11.242259   0.598705   5.870859   # H_
 92 1 4   0.038190  11.843385   1.190955   3.790453   # H_
 93 1 4   0.055936  10.143826   1.733985   3.592499   # H_
 94 1 4   0.048640   9.016615  26.170884   1.179121   # H_
 95 1 4   0.105077   8.485957  26.887931   2.718917   # H_
 96 1 3  -0.121776   9.086814  24.877724   2.951298   # C_3
 97 1 4   0.051616  10.062332  24.486656   3.351242   # H_
 98 1 4   0.049787   8.685525  24.153146   2.255230   # H_
 99 1 4   0.085458   8.375414  24.982619   3.810894   # H_
 100 1 2  -0.671137  23.329590   0.000000   1.933822   # O_3
 101 1 3   0.496448  23.743789   0.000000   3.152211   # C_3
 102 1 2  -0.607730  24.962178   0.000000   3.566410   # O_3
 103 1 3  -0.196816  22.686776   0.000000   4.209224   # C_3
 104 1 3   0.114645  21.360803   0.000000   3.891851   # C_3
 105 1 3   0.109673  23.004149   0.000000   5.535197   # C_3
 106 1 3  -0.178045  20.387168   0.000000   4.827832   # C_3
 107 1 4  -0.012932  21.116050   0.000000   2.996214   # H_
 108 1 3  -0.166974  22.068168   0.000000   6.508832   # C_3
 109 1 4   0.009271  23.899786   0.000000   5.779950   # H_
 110 1 3   0.078748  20.691093   0.000000   6.204907   # C_3
 111 1 3  -0.007101  19.652907   0.000000   7.243093   # C_3
 112 1 4   0.074751  19.496910   0.000000   4.558872   # H_
 113 1 3  -0.053196  18.275832   0.000000   6.939168   # C_3
 114 1 4   0.069588  22.337128   0.000000   7.399090   # H_
 115 1 3  -0.111539  19.956832   0.000000   8.620168   # C_3
 116 1 3   0.023820  17.339851   0.000000   7.912803   # C_3
 117 1 5  -0.085841  17.758622  26.398693   5.582803   # N_3
 118 1 3   0.055295  18.983197   0.000000   9.556149   # C_3
 119 1 4   0.050691  20.847090   0.000000   8.889128   # H_
 120 1 3  -0.161422  17.657224   0.000000   9.238776   # C_3
 121 1 3   0.480688  16.600211   0.000000  10.295789   # C_3
 122 1 4   0.007653  16.444214   0.000000   7.668050   # H_
 123 1 4   0.007605  19.227950   0.000000  10.451786   # H_
 124 1 2  -0.668730  15.381822   0.000000   9.881590   # O_3
 125 1 2  -0.668213  17.014410   0.000000  11.514178   # O_3
 126 1 4   0.104429  17.871585  25.362928   5.582803   # H_
 127 1 3   0.095603  16.377512  26.746727   5.120460   # C_3
 128 1 3   0.053396  16.113663  26.032907   3.760061   # C_3
 129 1 3  -0.324564  16.202688   0.091446   2.538176   # C_3
 130 1 4   0.136436  15.855730  26.394121   1.625594   # H_
 131 1 3   0.042195  17.621452   0.659221   2.286160   # C_3
 132 1 4   0.055753  15.447449   0.882458   2.680186   # H_
 133 1 4  -0.047715  16.200806   0.948891   5.102709   # H_
 134 1 4   0.048421  15.653741  26.297564   5.870859   # H_
 135 1 4   0.027149  15.052884  25.704238   3.790722   # H_
 136 1 4   0.029337  16.752712  25.162284   3.592499   # H_
 137 1 4  -0.047761  17.878578   0.725116   1.178583   # H_
 138 1 4  -0.020187  18.409505   0.008069   2.718379   # H_
 139 1 3  -0.192231  17.808648   2.018276   2.950760   # C_3
 140 1 4   0.058853  16.833131   2.409075   3.351511   # H_
 141 1 4   0.057869  18.209130   2.742854   2.254154   # H_
 142 1 4   0.065435  18.520586   1.913650   3.809549   # H_
 143 1 2  -0.610996  23.329590   0.000000  24.962178   # O_3
 144 1 3   0.486990  23.743789   0.000000  23.743789   # C_3
 145 1 2  -0.602712  24.962178   0.000000  23.329590   # O_3
 146 1 3  -0.176820  22.686776   0.000000  22.686776   # C_3
 147 1 3   0.103557  21.360803   0.000000  23.004149   # C_3
 148 1 3   0.103228  23.004149   0.000000  21.360803   # C_3
 149 1 3  -0.170904  20.387168   0.000000  22.068168   # C_3
 150 1 4   0.004959  21.116050   0.000000  23.899786   # H_
 151 1 3  -0.165030  22.068168   0.000000  20.387168   # C_3
 152 1 4   0.013361  23.899786   0.000000  21.116050   # H_
 153 1 3   0.089754  20.691093   0.000000  20.691093   # C_3
 154 1 3  -0.038257  19.652907   0.000000  19.652907   # C_3
 155 1 4   0.070812  19.496910   0.000000  22.337128   # H_
 156 1 3   0.019273  18.275832   0.000000  19.956832   # C_3
 157 1 4   0.066583  22.337128   0.000000  19.496910   # H_
 158 1 3  -0.078814  19.956832   0.000000  18.275832   # C_3
 159 1 3  -0.021136  17.339851   0.000000  18.983197   # C_3
 160 1 5  -0.150985  17.758622   0.497307  21.313197   # N_3
 161 1 3   0.020681  18.983197   0.000000  17.339851   # C_3
 162 1 4   0.024752  20.847090   0.000000  18.006872   # H_
 163 1 3  -0.131548  17.657224   0.000000  17.657224   # C_3
 164 1 3   0.469943  16.600211   0.000000  16.600211   # C_3
 165 1 4   0.037797  16.444214   0.000000  19.227950   # H_
 166 1 4   0.013270  19.227950   0.000000  16.444214   # H_
 167 1 2  -0.665080  15.381822   0.000000  17.014410   # O_3
 168 1 2  -0.666775  17.014410   0.000000  15.381822   # O_3
 169 1 4   0.086090  17.871585   1.533072  21.313197   # H_
 170 1 3  -0.128630  16.377512   0.149273  21.775540   # C_3
 171 1 3  -0.204493  16.113663   0.863093  23.135939   # C_3
 172 1 3   0.190241  16.202688  26.804554  24.357824   # C_3
 173 1 4  -0.075672  15.855730   0.501879  25.270406   # H_
 174 1 3  -0.104445  17.621721  26.236779  24.609840   # C_3
 175 1 4   0.012975  15.447449  26.013542  24.215814   # H_
 176 1 4   0.128067  16.200537  25.947378  21.793291   # H_
 177 1 4   0.036508  15.653741   0.598436  21.025141   # H_
 178 1 4   0.046000  15.052884   1.191493  23.105278   # H_
 179 1 4   0.066300  16.752443   1.733716  23.303501   # H_
 180 1 4   0.112358  17.878578  26.170884  25.717417   # H_
 181 1 4   0.118269  18.409774  26.887931  24.177621   # H_
 182 1 3  -0.121763  17.808648  24.877724  23.945240   # C_3
 183 1 4   0.054289  16.833131  24.486925  23.544489   # H_
 184 1 4   0.081398  18.209399  24.153146  24.641577   # H_
 185 1 4   0.091964  18.520586  24.982350  23.086182   # H_
 186 1 2  -0.616082   3.566410   0.000000  24.962178   # O_3
 187 1 3   0.498709   3.152211   0.000000  23.743789   # C_3
 188 1 2  -0.674201   1.933822   0.000000  23.329590   # O_3
 189 1 3  -0.202071   4.209224   0.000000  22.686776   # C_3
 190 1 3   0.114838   5.535197   0.000000  23.004149   # C_3
 191 1 3   0.116879   3.891851   0.000000  21.360803   # C_3
 192 1 3  -0.174189   6.508832   0.000000  22.068168   # C_3
 193 1 4   0.009826   5.779950   0.000000  23.899786   # H_
 194 1 3  -0.178891   4.827832   0.000000  20.387168   # C_3
 195 1 4  -0.019976   2.996214   0.000000  21.116050   # H_
 196 1 3   0.081159   6.204907   0.000000  20.691093   # C_3
 197 1 3  -0.009103   7.243093   0.000000  19.652907   # C_3
 198 1 4   0.077215   7.399090   0.000000  22.337128   # H_
 199 1 3  -0.051322   8.620168   0.000000  19.956832   # C_3
 200 1 4   0.069141   4.558872   0.000000  19.496910   # H_
 201 1 3  -0.110463   6.939168   0.000000  18.275832   # C_3
 202 1 3   0.022566   9.556149   0.000000  18.983197   # C_3
 203 1 5  -0.086501   9.137378  26.398693  21.313197   # N_3
 204 1 3   0.053993   7.912803   0.000000  17.339851   # C_3
 205 1 4   0.049138   6.048910   0.000000  18.006872   # H_
 206 1 3  -0.160406   9.238776   0.000000  17.657224   # C_3
 207 1 3   0.480371  10.295789   0.000000  16.600211   # C_3
 208 1 4   0.008564  10.451786   0.000000  19.227950   # H_
 209 1 4   0.007711   7.668050   0.000000  16.444214   # H_
 210 1 2  -0.668388  11.514178   0.000000  17.014410   # O_3
 211 1 2  -0.668257   9.881590   0.000000  15.381822   # O_3
 212 1 4   0.107542   9.024415  25.363197  21.313197   # H_
 213 1 3   0.095530  10.518757  26.746727  21.775540   # C_3
 214 1 3   0.049044  10.782337  26.032907  23.135939   # C_3
 215 1 3  -0.315765  10.692774   0.091446  24.357824   # C_3
 216 1 4   0.173397  11.039732  26.394390  25.270406   # H_
 217 1 3   0.041951   9.274010   0.659221  24.609571   # C_3
 218 1 4   0.070666  11.448013   0.882458  24.216083   # H_
 219 1 4  -0.046621  10.695463   0.948622  21.793291   # H_
 220 1 4   0.048841  11.242259  26.297295  21.025141   # H_
 221 1 4   0.035117  11.843385  25.705045  23.105547   # H_
 222 1 4   0.038776  10.143826  25.162015  23.303501   # H_
 223 1 4   0.019200   9.016884   0.725116  25.716879   # H_
 224 1 4  -0.004723   8.485957   0.008069  24.177083   # H_
 225 1 3  -0.189646   9.086814   2.018276  23.944702   # C_3
 226 1 4   0.060856  10.062600   2.409344  23.544758   # H_
 227 1 4   0.088588   8.685794   2.742854  24.641039   # H_
 228 1 4   0.070003   8.375414   1.913650  23.085375   # H_
 229 1 2  -0.679230   1.933822   3.566410   0.000000   # O_3
 230 1 3   0.508712   3.152211   3.152211   0.000000   # C_3
 231 1 2  -0.678857   3.566410   1.933822   0.000000   # O_3
 232 1 3  -0.226857   4.209224   4.209224   0.000000   # C_3
 233 1 3   0.125904   3.891851   5.535197   0.000000   # C_3
 234 1 3   0.125288   5.535197   3.891851   0.000000   # C_3
 235 1 3  -0.191325   4.827832   6.508832   0.000000   # C_3
 236 1 4  -0.024523   2.996214   5.779950   0.000000   # H_
 237 1 3  -0.188620   6.508832   4.827832   0.000000   # C_3
 238 1 4  -0.024135   5.779950   2.996214   0.000000   # H_
 239 1 3   0.082552   6.204907   6.204907   0.000000   # C_3
 240 1 3  -0.013342   7.243093   7.243093   0.000000   # C_3
 241 1 4   0.068494   4.558872   7.399090   0.000000   # H_
 242 1 3  -0.057653   6.939168   8.620168   0.000000   # C_3
 243 1 4   0.064995   7.399090   4.558872   0.000000   # H_
 244 1 3  -0.108146   8.620168   6.939168   0.000000   # C_3
 245 1 3   0.023758   7.912803   9.556149   0.000000   # C_3
 246 1 5  -0.023614   5.534121   9.183101  26.702080   # N_3
 247 1 3   0.049239   9.556149   7.912803   0.000000   # C_3
 248 1 4   0.038941   8.889128   6.048910   0.000000   # H_
 249 1 3  -0.161047   9.238776   9.238776   0.000000   # C_3
 250 1 3   0.480013  10.295789  10.295789   0.000000   # C_3
 251 1 4   0.014280   7.668050  10.451786   0.000000   # H_
 252 1 4   0.005835  10.451786   7.668050   0.000000   # H_
 253 1 2  -0.668018   9.881590  11.514178   0.000000   # O_3
 254 1 2  -0.668863  11.514178   9.881590   0.000000   # O_3
 255 1 4  -0.012235   5.388076  10.002353   0.442708   # H_
 256 1 3  -0.015383   5.257092   9.576321  25.316129   # C_3
 257 1 3  -0.072084   3.765709   9.935382  25.176808   # C_3
 258 1 3  -0.066277   3.341021   9.960934  23.715548   # C_3
 259 1 4   0.033509   2.324083  10.409290  23.663639   # H_
 260 1 3  -0.039156   3.300139   8.559652  23.079996   # C_3
 261 1 4   0.040515   4.045427  10.609127  23.146429   # H_
 262 1 4   0.061320   5.554024   8.736897  24.659329   # H_
 263 1 4   0.059522   5.863328  10.467923  25.040983   # H_
 264 1 4   0.058058   3.597609  10.948824  25.606068   # H_
 265 1 4   0.068260   3.140915   9.201660  25.733286   # H_
 266 1 4   0.043183   2.469860   7.982195  23.542338   # H_
 267 1 4   0.047373   4.237734   7.986767  23.209903   # H_
 268 1 3  -0.154272   3.064530   8.673422  21.573820   # C_3
 269 1 4   0.061890   4.044889   8.647602  21.049079   # H_
 270 1 4   0.056305   2.544093   9.619892  21.310239   # H_
 271 1 4   0.065530   2.450495   7.823777  21.224172   # H_
 272 1 2  -0.672174   1.933822  23.329590   0.000000   # O_3
 273 1 3   0.503213   3.152211  23.743789   0.000000   # C_3
 274 1 2  -0.613684   3.566410  24.962178   0.000000   # O_3
 275 1 3  -0.213651   4.209224  22.686776   0.000000   # C_3
 276 1 3   0.139048   3.891851  21.360803   0.000000   # C_3
 277 1 3   0.129687   5.535197  23.004149   0.000000   # C_3
 278 1 3  -0.205657   4.827832  20.387168   0.000000   # C_3
 279 1 4  -0.022117   2.996214  21.116050   0.000000   # H_
 280 1 3  -0.189577   6.508832  22.068168   0.000000   # C_3
 281 1 4   0.003831   5.779950  23.899786   0.000000   # H_
 282 1 3   0.113610   6.204907  20.691093   0.000000   # C_3
 283 1 3  -0.047185   7.243093  19.652907   0.000000   # C_3
 284 1 4   0.099076   4.558872  19.496910   0.000000   # H_
 285 1 3   0.034903   6.939168  18.275832   0.000000   # C_3
 286 1 4   0.076034   7.399090  22.337128   0.000000   # H_
 287 1 3  -0.075136   8.620168  19.956832   0.000000   # C_3
 288 1 3  -0.032791   7.912803  17.339851   0.000000   # C_3
 289 1 5  -0.213783   5.534121  17.712899   0.193920   # N_3
 290 1 3   0.020400   9.556149  18.983197   0.000000   # C_3
 291 1 4   0.029260   8.889128  20.847090   0.000000   # H_
 292 1 3  -0.126395   9.238776  17.657224   0.000000   # C_3
 293 1 3   0.469268  10.295789  16.600211   0.000000   # C_3
 294 1 4   0.035058   7.668050  16.444214   0.000000   # H_
 295 1 4   0.009288  10.451786  19.227950   0.000000   # H_
 296 1 2  -0.664522   9.881590  15.381822   0.000000   # O_3
 297 1 2  -0.665822  11.514178  17.014410   0.000000   # O_3
 298 1 4   0.176103   5.388076  16.893647  26.453292   # H_
 299 1 3  -0.024600   5.257092  17.319679   1.579871   # C_3
 300 1 3  -0.073877   3.765709  16.960618   1.719461   # C_3
 301 1 3  -0.071704   3.341021  16.934797   3.180452   # C_3
 302 1 4   0.015206   2.324083  16.486710   3.232361   # H_
 303 1 3  -0.035948   3.300139  18.336079   3.816004   # C_3
 304 1 4   0.034331   4.045427  16.286873   3.749571   # H_
 305 1 4   0.041243   5.554024  18.159103   2.236671   # H_
 306 1 4   0.022377   5.863328  16.428077   1.855017   # H_
 307 1 4   0.004678   3.597609  15.947176   1.289932   # H_
 308 1 4   0.018294   3.140915  17.694340   1.162714   # H_
 309 1 4   0.025840   2.469860  18.913805   3.353662   # H_
 310 1 4   0.037173   4.237734  18.909233   3.686097   # H_
 311 1 3  -0.156643   3.064530  18.222578   5.322180   # C_3
 312 1 4   0.061568   4.044889  18.248398   5.846652   # H_
 313 1 4   0.053214   2.544093  17.276108   5.585761   # H_
 314 1 4   0.065408   2.450495  19.072223   5.671560   # H_
 315 1 2  -0.598306  24.962178  23.329590   0.000000   # O_3
 316 1 3   0.480813  23.743789  23.743789   0.000000   # C_3
 317 1 2  -0.605383  23.329590  24.962178   0.000000   # O_3
 318 1 3  -0.158648  22.686776  22.686776   0.000000   # C_3
 319 1 3   0.082777  23.004149  21.360803   0.000000   # C_3
 320 1 3   0.081743  21.360803  23.004149   0.000000   # C_3
 321 1 3  -0.141885  22.068168  20.387168   0.000000   # C_3
 322 1 4   0.025884  23.899786  21.116050   0.000000   # H_
 323 1 3  -0.139363  20.387168  22.068168   0.000000   # C_3
 324 1 4   0.021007  21.116050  23.899786   0.000000   # H_
 325 1 3   0.058918  20.691093  20.691093   0.000000   # C_3
 326 1 3   0.002279  19.652907  19.652907   0.000000   # C_3
 327 1 4   0.065829  22.337128  19.496910   0.000000   # H_
 328 1 3  -0.056036  19.956832  18.275832   0.000000   # C_3
 329 1 4   0.057399  19.496910  22.337128   0.000000   # H_
 330 1 3  -0.114894  18.275832  19.956832   0.000000   # C_3
 331 1 3   0.026132  18.983197  17.339851   0.000000   # C_3
 332 1 5  -0.024265  21.361879  17.712899  26.702080   # N_3
 333 1 3   0.055704  17.339851  18.983197   0.000000   # C_3
 334 1 4   0.044631  18.006872  20.847090   0.000000   # H_
 335 1 3  -0.162305  17.657224  17.657224   0.000000   # C_3
 336 1 3   0.481051  16.600211  16.600211   0.000000   # C_3
 337 1 4   0.016640  19.227950  16.444214   0.000000   # H_
 338 1 4   0.004547  16.444214  19.227950   0.000000   # H_
 339 1 2  -0.666784  17.014410  15.381822   0.000000   # O_3
 340 1 2  -0.668558  15.381822  17.014410   0.000000   # O_3
 341 1 4   0.003014  21.507924  16.893647   0.442708   # H_
 342 1 3  -0.011696  21.638908  17.319679  25.316129   # C_3
 343 1 3  -0.074281  23.130291  16.960618  25.176808   # C_3
 344 1 3  -0.066761  23.554979  16.935066  23.715548   # C_3
 345 1 4   0.075475  24.571917  16.486710  23.663639   # H_
 346 1 3  -0.029646  23.595861  18.336079  23.079996   # C_3
 347 1 4   0.050083  22.850573  16.286873  23.146429   # H_
 348 1 4   0.062047  21.341976  18.159103  24.659329   # H_
 349 1 4   0.061145  21.032672  16.428077  25.040983   # H_
 350 1 4   0.083470  23.298391  15.947176  25.606068   # H_
 351 1 4   0.096530  23.755085  17.694340  25.733286   # H_
 352 1 4   0.078561  24.426140  18.913805  23.542338   # H_
 353 1 4   0.053278  22.658266  18.909233  23.209903   # H_
 354 1 3  -0.165847  23.831470  18.222578  21.573820   # C_3
 355 1 4   0.076802  22.851111  18.248398  21.049079   # H_
 356 1 4   0.095346  24.351907  17.276108  21.310239   # H_
 357 1 4   0.113241  24.445505  19.072223  21.224172   # H_
 358 1 2  -0.605415  24.962178   3.566410   0.000000   # O_3
 359 1 3   0.501920  23.743789   3.152211   0.000000   # C_3
 360 1 2  -0.671542  23.329590   1.933822   0.000000   # O_3
 361 1 3  -0.210664  22.686776   4.209224   0.000000   # C_3
 362 1 3   0.135364  23.004149   5.535197   0.000000   # C_3
 363 1 3   0.131458  21.360803   3.891851   0.000000   # C_3
 364 1 3  -0.196464  22.068168   6.508832   0.000000   # C_3
 365 1 4   0.011050  23.899786   5.779950   0.000000   # H_
 366 1 3  -0.196388  20.387168   4.827832   0.000000   # C_3
 367 1 4  -0.022872  21.116050   2.996214   0.000000   # H_
 368 1 3   0.114337  20.691093   6.204907   0.000000   # C_3
 369 1 3  -0.048061  19.652907   7.243093   0.000000   # C_3
 370 1 4   0.107573  22.337128   7.399090   0.000000   # H_
 371 1 3   0.039073  19.956832   8.620168   0.000000   # C_3
 372 1 4   0.071424  19.496910   4.558872   0.000000   # H_
 373 1 3  -0.074065  18.275832   6.939168   0.000000   # C_3
 374 1 3  -0.035113  18.983197   9.556149   0.000000   # C_3
 375 1 5  -0.212102  21.361879   9.183101   0.193920   # N_3
 376 1 3   0.018794  17.339851   7.912803   0.000000   # C_3
 377 1 4   0.027584  18.006872   6.048910   0.000000   # H_
 378 1 3  -0.124208  17.657224   9.238776   0.000000   # C_3
 379 1 3   0.468653  16.600211  10.295789   0.000000   # C_3
 380 1 4   0.038440  19.227950  10.451786   0.000000   # H_
 381 1 4   0.009382  16.444214   7.668050   0.000000   # H_
 382 1 2  -0.663193  17.014410  11.514178   0.000000   # O_3
 383 1 2  -0.665765  15.381822   9.881590   0.000000   # O_3
 384 1 4   0.187121  21.507924  10.002353  26.453292   # H_
 385 1 3  -0.020195  21.638908   9.576321   1.579871   # C_3
 386 1 3  -0.076234  23.130291   9.935382   1.719461   # C_3
 387 1 3  -0.071953  23.554979   9.960934   3.180452   # C_3
 388 1 4   0.058165  24.571917  10.409290   3.232361   # H_
 389 1 3  -0.026229  23.595861   8.559652   3.816004   # C_3
 390 1 4   0.044022  22.850573  10.609127   3.749571   # H_
 391 1 4   0.040807  21.341976   8.736897   2.236671   # H_
 392 1 4   0.024460  21.032672  10.467923   1.855017   # H_
 393 1 4   0.031430  23.298391  10.948824   1.289932   # H_
 394 1 4   0.047535  23.755085   9.201660   1.162714   # H_
 395 1 4   0.060416  24.426140   7.982195   3.353662   # H_
 396 1 4   0.039047  22.658266   7.986767   3.686097   # H_
 397 1 3  -0.168255  23.831470   8.673422   5.322180   # C_3
 398 1 4   0.073301  22.851111   8.647602   5.846652   # H_
 399 1 4   0.092909  24.351907   9.619892   5.585761   # H_
 400 1 4   0.110579  24.445505   7.823777   5.671560   # H_
 401 1 2  -0.686900   0.000000   1.933822   3.566410   # O_3
 402 1 3   0.513493   0.000000   3.152211   3.152211   # C_3
 403 1 2  -0.685872   0.000000   3.566410   1.933822   # O_3
 404 1 3  -0.246149   0.000000   4.209224   4.209224   # C_3
 405 1 3   0.148130   0.000000   3.891851   5.535197   # C_3
 406 1 3   0.144032   0.000000   5.535197   3.891851   # C_3
 407 1 3  -0.219226   0.000000   4.827832   6.508832   # C_3
 408 1 4  -0.035034   0.000000   2.996214   5.779950   # H_
 409 1 3  -0.218730   0.000000   6.508832   4.827832   # C_3
 410 1 4  -0.033408   0.000000   5.779950   2.996214   # H_
 411 1 3   0.106856   0.000000   6.204907   6.204907   # C_3
 412 1 3  -0.052887   0.000000   7.243093   7.243093   # C_3
 413 1 4   0.088111   0.000000   4.558872   7.399090   # H_
 414 1 3   0.008613   0.000000   6.939168   8.620168   # C_3
 415 1 4   0.070475   0.000000   7.399090   4.558872   # H_
 416 1 3  -0.085832   0.000000   8.620168   6.939168   # C_3
 417 1 3  -0.015503   0.000000   7.912803   9.556149   # C_3
 418 1 5  -0.143175   0.720275   5.663222   9.092193   # N_3
 419 1 3   0.020931   0.000000   9.556149   7.912803   # C_3
 420 1 4   0.022947   0.000000   8.889128   6.048910   # H_
 421 1 3  -0.138175   0.000000   9.238776   9.238776   # C_3
 422 1 3   0.470462   0.000000  10.295789  10.295789   # C_3
 423 1 4   0.027280   0.000000   7.668050  10.451786   # H_
 424 1 4   0.012385   0.000000  10.451786   7.668050   # H_
 425 1 2  -0.671551   0.000000   9.881590  11.514178   # O_3
 426 1 2  -0.670634   0.000000  11.514178   9.881590   # O_3
 427 1 4   0.082100   1.662980   5.822715   8.667774   # H_
 428 1 3  -0.190129   0.938939   5.418468  10.527094   # C_3
 429 1 3  -0.044976   2.034951   4.365490  10.665071   # C_3
 430 1 3  -0.054219   2.025538   3.669690  12.007181   # C_3
 431 1 4   0.024699   3.104605   3.470122  12.225039   # H_
 432 1 3  -0.165252   1.317635   2.368193  11.827247   # C_3
 433 1 4   0.006007   1.493804   4.218907  12.814599   # H_
 434 1 4   0.166326  26.872600   5.261127  11.065283   # H_
 435 1 4   0.060123   1.403971   6.319484  10.985402   # H_
 436 1 4   0.033367   3.024455   4.860107  10.497778   # H_
 437 1 4   0.021136   1.845604   3.666463   9.884549   # H_
 438 1 4   0.010829   1.449694   1.859052  12.810834   # H_
 439 1 4   0.006098   1.810370   1.722151  11.051835   # H_
 440 1 3  -0.012306  26.703694   2.505093  11.555060   # C_3
 441 1 4   0.052927  26.261792   3.391317  12.049677   # H_
 442 1 4   0.033660  26.196166   1.617794  11.856026   # H_
 443 1 4   0.069747  26.635916   2.629891  10.432689   # H_
 444 1 2  -0.678062   0.000000   1.933822  23.329590   # O_3
 445 1 3   0.497434   0.000000   3.152211  23.743789   # C_3
 446 1 2  -0.619826   0.000000   3.566410  24.962178   # O_3
 447 1 3  -0.202675   0.000000   4.209224  22.686776   # C_3
 448 1 3   0.114477   0.000000   3.891851  21.360803   # C_3
 449 1 3   0.112796   0.000000   5.535197  23.004149   # C_3
 450 1 3  -0.180386   0.000000   4.827832  20.387168   # C_3
 451 1 4  -0.020159   0.000000   2.996214  21.116050   # H_
 452 1 3  -0.171547   0.000000   6.508832  22.068168   # C_3
 453 1 4   0.011530   0.000000   5.779950  23.899786   # H_
 454 1 3   0.074914   0.000000   6.204907  20.691093   # C_3
 455 1 3  -0.010806   0.000000   7.243093  19.652907   # C_3
 456 1 4   0.065668   0.000000   4.558872  19.496910   # H_
 457 1 3  -0.060956   0.000000   6.939168  18.275832   # C_3
 458 1 4   0.078478   0.000000   7.399090  22.337128   # H_
 459 1 3  -0.114201   0.000000   8.620168  19.956832   # C_3
 460 1 3   0.022986   0.000000   7.912803  17.339851   # C_3
 461 1 5  -0.089980  26.172498   5.659725  17.808917   # N_3
 462 1 3   0.055168   0.000000   9.556149  18.983197   # C_3
 463 1 4   0.052267   0.000000   8.889128  20.847090   # H_
 464 1 3  -0.163815   0.000000   9.238776  17.657224   # C_3
 465 1 3   0.479973   0.000000  10.295789  16.600211   # C_3
 466 1 4   0.007769   0.000000   7.668050  16.444214   # H_
 467 1 4   0.009107   0.000000  10.451786  19.227950   # H_
 468 1 2  -0.673740   0.000000   9.881590  15.381822   # O_3
 469 1 2  -0.670446   0.000000  11.514178  17.014410   # O_3
 470 1 4   0.113734  25.233827   5.812495  18.247591   # H_
 471 1 3   0.154101  25.948185   5.412013  16.374016   # C_3
 472 1 3  -0.115030  24.869386   4.343166  16.241419   # C_3
 473 1 3  -0.087090  24.866697   3.667001  14.890432   # C_3
 474 1 4   0.032863  23.786553   3.471467  14.674458   # H_
 475 1 3   0.108274  25.580517   2.365234  15.047505   # C_3
 476 1 4   0.070209  25.394127   4.231548  14.090814   # H_
 477 1 4  -0.084030   0.012372   5.279685  15.828296   # H_
 478 1 4   0.038109  25.465402   6.313029  15.932921   # H_
 479 1 4   0.054976  23.877731   4.819494  16.428884   # H_
 480 1 4   0.079950  25.091547   3.639029  17.011451   # H_
 481 1 4  -0.002062  25.476698   1.881644  14.052353   # H_
 482 1 4  -0.016238  25.069762   1.699558  15.795483   # H_
 483 1 3  -0.313767   0.193113   2.497294  15.362457   # C_3
 484 1 4   0.064696   0.641201   3.394813  14.906301   # H_
 485 1 4   0.046688   0.710323   1.617794  15.049657   # H_
 486 1 4   0.041578   0.231575   2.595464  16.489669   # H_
 487 1 2  -0.614766   0.000000  24.962178  23.329590   # O_3
 488 1 3   0.488072   0.000000  23.743789  23.743789   # C_3