 (written by mofun)

816 atoms
0 bonds
0 angles
0 dihedrals
0 impropers

4 atom types
   0.000000  20.700400 xlo xhi
   0.000000  20.700400 ylo yhi
   0.000000  20.700400 zlo zhi

Masses

 1 91.2240   # Zr3+4
 2 15.9994   # O_3
 3 12.0107   # C_3
 4 1.0079   # H_

Pair Coeffs

 1   0.069000   2.783168 # Zr3+4
 2   0.060000   3.118146 # O_3
 3   0.105000   3.430851 # C_3
 4   0.044000   2.571134 # H_

Atoms

 1 1 1   3.169480   2.481771   0.000000   0.000000   # Zr3+4
 2 1 1   3.190620   2.481771  10.350200  10.350200   # Zr3+4
 3 1 1   3.176930  12.831971   0.000000  10.350200   # Zr3+4
 4 1 1   3.181530  12.831971  10.350200   0.000000   # Zr3+4
 5 1 1   3.167370  18.218629   0.000000   0.000000   # Zr3+4
 6 1 1   3.190970  18.218629  10.350200  10.350200   # Zr3+4
 7 1 1   3.179070   7.868429   0.000000  10.350200   # Zr3+4
 8 1 1   3.179450   7.868429  10.350200   0.000000   # Zr3+4
 9 1 1   3.170050   0.000000   2.481771   0.000000   # Zr3+4
 10 1 1   3.145980   0.000000  12.831971  10.350200   # Zr3+4
 11 1 1   3.190510  10.350200   2.481771  10.350200   # Zr3+4
 12 1 1   3.181630  10.350200  12.831971   0.000000   # Zr3+4
 13 1 1   3.168520   0.000000  18.218629   0.000000   # Zr3+4
 14 1 1   3.212240   0.000000   7.868429  10.350200   # Zr3+4
 15 1 1   3.190820  10.350200  18.218629  10.350200   # Zr3+4
 16 1 1   3.178940  10.350200   7.868429   0.000000   # Zr3+4
 17 1 1   3.199450   0.000000   0.000000   2.481771   # Zr3+4
 18 1 1   3.177920   0.000000  10.350200  12.831971   # Zr3+4
 19 1 1   3.144850  10.350200   0.000000  12.831971   # Zr3+4
 20 1 1   3.191060  10.350200  10.350200   2.481771   # Zr3+4
 21 1 1   3.135620   0.000000   0.000000  18.218629   # Zr3+4
 22 1 1   3.180110   0.000000  10.350200   7.868429   # Zr3+4
 23 1 1   3.211480  10.350200   0.000000   7.868429   # Zr3+4
 24 1 1   3.191590  10.350200  10.350200  18.218629   # Zr3+4
 25 1 2  -1.313530   1.161292   9.188908   9.188908   # O_3
 26 1 2  -1.222720  11.511492  19.539108   9.188908   # O_3
 27 1 2  -1.338840  11.511492   9.188908  19.539108   # O_3
 28 1 2  -1.315990   9.188908   1.161292   9.188908   # O_3
 29 1 2  -1.334350   9.188908  11.511492  19.539108   # O_3
 30 1 2  -1.186030  19.539108  19.539108   1.161292   # O_3
 31 1 2  -1.227590  19.539108   9.188908  11.511492   # O_3
 32 1 2  -1.363820   1.161292   1.161292   1.161292   # O_3
 33 1 2  -1.416010  11.511492  11.511492   1.161292   # O_3
 34 1 2  -1.357340  19.539108   1.161292   1.161292   # O_3
 35 1 2  -1.447560  19.539108  11.511492  11.511492   # O_3
 36 1 2  -1.535070   9.188908   1.161292  11.511492   # O_3
 37 1 2  -1.419750   9.188908  11.511492   1.161292   # O_3
 38 1 2  -1.348170   1.161292  19.539108   1.161292   # O_3
 39 1 2  -1.405700   1.161292   9.188908  11.511492   # O_3
 40 1 2  -1.441010  11.511492  19.539108  11.511492   # O_3
 41 1 2  -1.420420  11.511492   9.188908   1.161292   # O_3
 42 1 2  -1.310770  19.539108  19.539108  19.539108   # O_3
 43 1 2  -1.308530  19.539108   9.188908   9.188908   # O_3
 44 1 2  -1.302650   9.188908  19.539108   9.188908   # O_3
 45 1 2  -1.339900   9.188908   9.188908  19.539108   # O_3
 46 1 2  -1.489780   1.161292   1.161292  19.539108   # O_3
 47 1 2  -1.532850   1.161292  11.511492   9.188908   # O_3
 48 1 2  -1.406300  11.511492   1.161292   9.188908   # O_3
 49 1 3   0.523895   3.179581   0.000000  17.520819   # C_3
 50 1 2  -0.729708   3.528590   0.000000  18.727859   # O_3
 51 1 2  -0.793765   1.972541   0.000000  17.171810   # O_3
 52 1 3  -0.147565   4.243582   0.000000  16.456818   # C_3
 53 1 3  -0.031866   3.816533   0.000000  15.162836   # C_3
 54 1 4   0.011822   2.700574   0.000000  14.930785   # H_
 55 1 2  -0.072762   4.468802  20.322825  12.833420   # O_3
 56 1 3   0.043289   4.812636   0.000000  14.167768   # C_3
 57 1 3  -0.189999   6.106618   0.000000  14.593782   # C_3
 58 1 3   0.014109   6.532632   0.000000  15.887764   # C_3
 59 1 3  -0.016950   5.537564   0.000000  16.883867   # C_3
 60 1 4   0.037888   5.769615   0.000000  17.999826   # H_
 61 1 4   0.013113   7.648591   0.000000  16.119815   # H_
 62 1 2  -0.794120   8.377452   0.000000  13.878790   # O_3
 63 1 3   0.542403   7.170619   0.000000  13.529781   # C_3
 64 1 2  -0.784628   6.821610   0.000000  12.322741   # O_3
 65 1 3   0.024457   4.301750  18.941901  12.927400   # C_3
 66 1 3  -0.043759   5.659489  18.143694  13.142063   # C_3
 67 1 4   0.046113   3.500852  18.682732  13.669509   # H_
 68 1 4   0.043195   3.821087  18.712334  11.997745   # H_
 69 1 4   0.032825   5.582277  17.180711  12.648979   # H_
 70 1 3  -0.088787   5.814121  17.784749  14.645947   # C_3
 71 1 4   0.032991   6.534081  18.560186  12.677132   # H_
 72 1 4   0.092891   5.250242  18.473451  15.250399   # H_
 73 1 4   0.039438   5.336977  16.797754  14.774289   # H_
 74 1 3  -0.018541   7.241000  17.662409  15.136339   # C_3
 75 1 4   0.048868   7.822888  18.425426  14.633734   # H_
 76 1 3  -0.161971   7.306827  17.911849  16.653472   # C_3
 77 1 4   0.024027   7.658941  16.697150  14.860403   # H_
 78 1 4   0.098963   6.401185  18.362704  17.122543   # H_
 79 1 4   0.094129   8.190734  18.582128  16.841224   # H_
 80 1 4   0.073600   7.514452  16.959631  17.164565   # H_
 81 1 3   0.533399   3.179581  10.350200   7.170619   # C_3
 82 1 2  -0.656650   3.528590  10.350200   8.377659   # O_3
 83 1 2  -0.659353   1.972541  10.350200   6.821610   # O_3
 84 1 3  -0.106878   4.243582  10.350200   6.106618   # C_3
 85 1 3  -0.054233   3.816533  10.350200   4.812636   # C_3
 86 1 4   0.057960   2.700574  10.350200   4.580585   # H_
 87 1 2  -0.220554   4.546429   9.965587   2.454653   # O_3
 88 1 3   0.183555   4.812636  10.350200   3.817568   # C_3
 89 1 3  -0.211426   6.106618  10.350200   4.243582   # C_3
 90 1 3   0.053770   6.532632  10.350200   5.537564   # C_3
 91 1 3  -0.014092   5.537564  10.350200   6.533667   # C_3
 92 1 4   0.040560   5.769615  10.350200   7.649626   # H_
 93 1 4   0.028805   7.648591  10.350200   5.769615   # H_
 94 1 2  -0.744898   8.377452  10.350200   3.528590   # O_3
 95 1 3   0.566620   7.170619  10.350200   3.179581   # C_3
 96 1 2  -0.736929   6.821610  10.350200   1.972541   # O_3
 97 1 3   0.063106   3.786724  10.902487   1.786238   # C_3
 98 1 3  -0.095712   2.281598  10.713285   2.050375   # C_3
 99 1 4   0.025736   4.079635  11.942061   2.069626   # H_
 100 1 4  -0.015862   3.957295  10.787599   0.692842   # H_
 101 1 4   0.038424   2.037126  11.527225   2.759570   # H_
 102 1 3  -0.066293   1.514648   9.448698   2.556913   # C_3
 103 1 4  -0.006813   1.810043  10.993568   1.096293   # H_
 104 1 4   0.021278   1.229604   9.388873   3.624226   # H_
 105 1 4  -0.020913   0.596379   9.465051   1.981028   # H_
 106 1 3  -0.012972   2.146010   8.160926   2.112476   # C_3
 107 1 4   0.014560   2.792070   8.408088   1.256307   # H_
 108 1 3  -0.182762   3.031988   7.562270   3.149152   # C_3
 109 1 4  -0.004455   1.405557   7.428753   1.802591   # H_
 110 1 4   0.066594   2.469351   7.034410   3.884844   # H_
 111 1 4   0.083427   3.659003   8.265670   3.674942   # H_
 112 1 4   0.064917   3.680117   6.849969   2.603903   # H_
 113 1 3   0.532999  13.529781   0.000000   7.170619   # C_3
 114 1 2  -0.706052  13.878790   0.000000   8.377659   # O_3
 115 1 2  -0.687882  12.322741   0.000000   6.821610   # O_3
 116 1 3  -0.151431  14.593782   0.000000   6.106618   # C_3
 117 1 3  -0.024374  14.166733   0.000000   4.812636   # C_3
 118 1 4   0.018220  13.050774   0.000000   4.580585   # H_
 119 1 2  -0.080097  14.746344  20.474145   2.462313   # O_3
 120 1 3   0.041566  15.162629   0.000000   3.817568   # C_3
 121 1 3  -0.176179  16.456611   0.000000   4.243582   # C_3
 122 1 3   0.005060  16.882832   0.000000   5.537564   # C_3
 123 1 3  -0.011411  15.887764   0.000000   6.533667   # C_3
 124 1 4   0.008499  16.119815   0.000000   7.649626   # H_
 125 1 4   0.018764  17.998791   0.000000   5.769615   # H_
 126 1 2  -0.650994  18.727652   0.000000   3.528590   # O_3
 127 1 3   0.533542  17.520612   0.000000   3.179581   # C_3
 128 1 2  -0.710588  17.171603   0.000000   1.972541   # O_3
 129 1 3   0.035693  14.157004  19.184303   2.466453   # C_3
 130 1 3  -0.080532  15.208170  18.090287   2.639922   # C_3
 131 1 4   0.049368  13.369767  19.033811   3.231332   # H_
 132 1 4   0.020007  13.661229  19.068587   1.482149   # H_
 133 1 4   0.046445  14.673065  17.202860   2.266901   # H_
 134 1 3  -0.053700  15.531096  17.717472   4.070734   # C_3
 135 1 4   0.083819  16.080899  18.300396   2.023671   # H_
 136 1 4   0.077141  14.988539  18.345522   4.803528   # H_
 137 1 4   0.030388  15.140687  16.692182   4.217914   # H_
 138 1 3  -0.027505  17.020076  17.605069   4.303406   # C_3
 139 1 4   0.084513  17.609623  18.332688   3.740562   # H_
 140 1 3  -0.165344  17.371776  17.713332   5.774791   # C_3
 141 1 4   0.044621  17.387922  16.636290   3.985034   # H_
 142 1 4   0.092270  16.621386  18.268517   6.355644   # H_
 143 1 4   0.112654  18.348007  18.252578   5.839583   # H_
 144 1 4   0.069507  17.497634  16.731098   6.244690   # H_
 145 1 3   0.513201  13.529781  10.350200  17.520819   # C_3
 146 1 2  -0.691283  13.878790  10.350200  18.727859   # O_3
 147 1 2  -0.728808  12.322741  10.350200  17.171810   # O_3
 148 1 3  -0.108403  14.593782  10.350200  16.456818   # C_3
 149 1 3  -0.049243  14.166733  10.350200  15.162836   # C_3
 150 1 4   0.052923  13.050774  10.350200  14.930785   # H_
 151 1 2  -0.204197  14.887521   9.572279  12.928021   # O_3
 152 1 3   0.167308  15.162629  10.350200  14.167768   # C_3
 153 1 3  -0.196261  16.456611  10.350200  14.593782   # C_3
 154 1 3   0.041032  16.882832  10.350200  15.887764   # C_3
 155 1 3  -0.014433  15.887764  10.350200  16.883867   # C_3
 156 1 4   0.050002  16.119815  10.350200  17.999826   # H_
 157 1 4   0.037545  17.998791  10.350200  16.119815   # H_
 158 1 2  -0.622528  18.727652  10.350200  13.878790   # O_3
 159 1 3   0.553110  17.520612  10.350200  13.529781   # C_3
 160 1 2  -0.645531  17.171603  10.350200  12.322741   # O_3
 161 1 3   0.044157  14.909877   8.138776  13.231903   # C_3
 162 1 3  -0.107098  16.293078   7.424612  13.500594   # C_3
 163 1 4   0.020008  14.216000   7.916454  14.074823   # H_
 164 1 4   0.028532  14.459229   7.672189  12.379874   # H_
 165 1 4   0.056994  16.517470   6.565960  12.885378   # H_
 166 1 3  -0.058012  16.374430   7.002531  15.017726   # C_3
 167 1 4   0.074694  17.096253   8.082264  13.283240   # H_
 168 1 4   0.042951  15.711811   7.676950  15.604169   # H_
 169 1 4   0.031912  16.118780   5.962750  15.219762   # H_
 170 1 3  -0.047060  17.759080   6.940637  15.639359   # C_3
 171 1 4   0.073630  18.329169   7.824958  15.291799   # H_
 172 1 3  -0.159161  17.787233   6.912692  17.198927   # C_3
 173 1 4   0.074058  18.256511   6.012431  15.273583   # H_
 174 1 4   0.070623  16.989439   7.559993  17.599894   # H_
 175 1 4   0.095804  18.724547   7.338499  17.559528   # H_
 176 1 4   0.086447  17.685387   5.886573  17.611693   # H_
 177 1 3   0.509660  17.520819   0.000000  17.520819   # C_3
 178 1 2  -0.727182  17.171810   0.000000  18.727859   # O_3
 179 1 2  -0.729050  18.727859   0.000000  17.171810   # O_3
 180 1 3  -0.107037  16.456818   0.000000  16.456818   # C_3
 181 1 3  -0.075344  16.883867   0.000000  15.162836   # C_3
 182 1 4   0.050556  17.999826   0.000000  14.930785   # H_
 183 1 2  -0.293815  16.322886   0.193756  12.806302   # O_3
 184 1 3   0.177348  15.887971   0.000000  14.167768   # C_3
 185 1 3  -0.241427  14.593989   0.000000  14.593782   # C_3
 186 1 3   0.045960  14.167768   0.000000  15.887764   # C_3
 187 1 3  -0.033615  15.162836   0.000000  16.883867   # C_3
 188 1 4   0.030390  14.930785   0.000000  17.999826   # H_
 189 1 4   0.009136  13.051809   0.000000  16.119815   # H_
 190 1 2  -0.805824  12.322948   0.000000  13.878790   # O_3
 191 1 3   0.565884  13.529988   0.000000  13.529781   # C_3
 192 1 2  -0.783756  13.878997   0.000000  12.322741   # O_3
 193 1 3   0.126188  16.953421  19.717131  12.308665   # C_3
 194 1 3   0.064540  18.416111  20.052477  11.920946   # C_3
 195 1 4   0.044106  16.826113  18.758702  12.884550   # H_
 196 1 4   0.042669  16.440258  19.577403  11.398882   # H_
 197 1 4   0.077567  19.090116  19.673039  12.731781   # H_
 198 1 3  -0.129411  18.794514  19.481974  10.552650   # C_3
 199 1 4  -0.042170  18.516922   0.441126  11.896106   # H_
 200 1 4   0.057908  18.256097  18.538036  10.438591   # H_
 201 1 4   0.099269  18.450888  20.179164   9.763551   # H_
 202 1 3   0.098368  20.281010  19.199414  10.373177   # C_3
 203 1 4   0.058832  20.470005  18.110987  10.564449   # H_
 204 1 3  -0.053096  20.589446  19.405797   8.856459   # C_3
 205 1 4  -0.035185   0.255443  19.821668  11.050081   # H_
 206 1 4  -0.002530   0.859481  18.941694   8.534154   # H_
 207 1 4   0.131043  20.653824  20.474352   8.684853   # H_
 208 1 4   0.072748  19.747147  18.988477   8.248281   # H_
 209 1 3   0.513111  17.520819  10.350200   7.170619   # C_3
 210 1 2  -0.729806  17.171810  10.350200   8.377659   # O_3
 211 1 2  -0.686193  18.727859  10.350200   6.821610   # O_3
 212 1 3  -0.103889  16.456818  10.350200   6.106618   # C_3
 213 1 3  -0.056523  16.883867  10.350200   4.812636   # C_3
 214 1 4   0.061324  17.999826  10.350200   4.580585   # H_
 215 1 2  -0.208844  16.081727   9.615957   2.603282   # O_3
 216 1 3   0.175140  15.887971  10.350200   3.817568   # C_3
 217 1 3  -0.213935  14.593989  10.350200   4.243582   # C_3
 218 1 3   0.051651  14.167768  10.350200   5.537564   # C_3
 219 1 3  -0.017185  15.162836  10.350200   6.533667   # C_3
 220 1 4   0.041781  14.930785  10.350200   7.649626   # H_
 221 1 4   0.029533  13.051809  10.350200   5.769615   # H_
 222 1 2  -0.669119  12.322948  10.350200   3.528590   # O_3
 223 1 3   0.570941  13.529988  10.350200   3.179581   # C_3
 224 1 2  -0.658783  13.878997  10.350200   1.972541   # O_3
 225 1 3   0.038453  16.009896   8.209365   2.919377   # C_3
 226 1 3  -0.067127  17.399721   7.513003   2.894123   # C_3
 227 1 4   0.037592  15.575395   7.978348   3.919828   # H_
 228 1 4   0.044672  15.356385   7.734083   2.164848   # H_
 229 1 4   0.059513  17.425597   6.639239   2.216599   # H_
 230 1 3  -0.101428  18.522511   8.408295   2.425466   # C_3
 231 1 4   0.070240  17.636948   7.118454   3.924796   # H_
 232 1 4   0.072057  18.714197   9.219751   3.082290   # H_
 233 1 4   0.084213  19.433743   7.782729   2.548219   # H_
 234 1 3   0.054847  18.486285   8.910901   0.992791   # C_3
 235 1 4  -0.014306  18.328134   8.060322   0.306780   # H_
 236 1 3  -0.360184  17.551662   9.995188   0.488322   # C_3
 237 1 4   0.005880  19.501640   9.318078   0.834019   # H_
 238 1 4   0.169952  17.834844  10.206332  20.157429   # H_
 239 1 4   0.104176  17.584162  10.873506   1.103745   # H_
 240 1 4   0.093626  16.529476   9.627756   0.400967   # H_
 241 1 3   0.530924   7.170619   0.000000   7.170619   # C_3
 242 1 2  -0.702972   6.821610   0.000000   8.377659   # O_3
 243 1 2  -0.689730   8.377659   0.000000   6.821610   # O_3
 244 1 3  -0.144746   6.106618   0.000000   6.106618   # C_3
 245 1 3  -0.028561   6.533667   0.000000   4.812636   # C_3
 246 1 4   0.018703   7.649626   0.000000   4.580585   # H_
 247 1 2  -0.095171   5.758851  20.034882   2.531452   # O_3
 248 1 3   0.052962   5.537564   0.000000   3.817568   # C_3
 249 1 3  -0.183778   4.243582   0.000000   4.243582   # C_3
 250 1 3   0.017730   3.817568   0.000000   5.537564   # C_3
 251 1 3  -0.009803   4.812636   0.000000   6.533667   # C_3
 252 1 4   0.013864   4.580585   0.000000   7.649626   # H_
 253 1 4   0.006097   2.701609   0.000000   5.769615   # H_
 254 1 2  -0.704931   1.972748   0.000000   3.528590   # O_3
 255 1 3   0.552191   3.179581   0.000000   3.179581   # C_3
 256 1 2  -0.705430   3.528590   0.000000   1.972541   # O_3
 257 1 3   0.160463   6.966927  20.112923   1.860345   # C_3
 258 1 3  -0.200968   6.986592   0.587270   0.887426   # C_3
 259 1 4   0.040939   7.826407  20.062000   2.531452   # H_
 260 1 4   0.012573   7.004601  19.211834   1.226706   # H_
 261 1 4   0.021555   6.009740   0.613974   0.355633   # H_
 262 1 3  -0.030670   7.325872   1.928242   1.532037   # C_3
 263 1 4  -0.017957   7.775484   0.360601   0.136623   # H_
 264 1 4   0.004097   8.283058   1.727034   1.984133   # H_
 265 1 4   0.011279   7.626441   2.597693   0.728447   # H_
 266 1 3  -0.064944   6.074739   2.558155   2.371231   # C_3
 267 1 4   0.042831   5.926939   2.146217   3.310615   # H_
 268 1 3  -0.158418   6.241585   4.048170   2.752532   # C_3
 269 1 4   0.055217   5.095610   2.391517   1.891810   # H_
 270 1 4   0.056397   7.220300   4.434854   2.441819   # H_
 271 1 4   0.055166   6.168719   4.129316   3.804734   # H_
 272 1 4   0.062625   5.464906   4.721968   2.360260   # H_
 273 1 3   0.521666   7.170619  10.350200  17.520819   # C_3
 274 1 2  -0.608824   6.821610  10.350200  18.727859   # O_3
 275 1 2  -0.647752   8.377659  10.350200  17.171810   # O_3
 276 1 3  -0.095028   6.106618  10.350200  16.456818   # C_3
 277 1 3  -0.059838   6.533667  10.350200  15.162836   # C_3
 278 1 4   0.056673   7.649626  10.350200  14.930785   # H_
 279 1 2  -0.224583   5.999390  10.377732  12.804853   # O_3
 280 1 3   0.187319   5.537564  10.350200  14.167768   # C_3
 281 1 3  -0.223831   4.243582  10.350200  14.593782   # C_3
 282 1 3   0.057499   3.817568  10.350200  15.887764   # C_3
 283 1 3  -0.021796   4.812636  10.350200  16.883867   # C_3
 284 1 4   0.056307   4.580585  10.350200  17.999826   # H_
 285 1 4   0.019973   2.701609  10.350200  16.119815   # H_
 286 1 2  -0.759814   1.972748  10.350200  13.878790   # O_3
 287 1 3   0.566842   3.179581  10.350200  13.529781   # C_3
 288 1 2  -0.738177   3.528590  10.350200  12.322741   # O_3
 289 1 3   0.046630   6.370755   9.132809  12.286515   # C_3
 290 1 3  -0.092852   7.736982   8.541192  12.843149   # C_3
 291 1 4   0.036740   5.513552   8.470604  12.468265   # H_
 292 1 4   0.021855   6.428302   9.354304  11.193327   # H_
 293 1 4   0.053074   7.291509   7.880228  13.639494   # H_
 294 1 3  -0.074408   8.675538   7.836550  11.865883   # C_3
 295 1 4   0.049212   8.356130   9.251423  13.382809   # H_
 296 1 4   0.039442   9.715940   7.948540  12.199781   # H_
 297 1 4   0.048354   8.470397   6.811674  11.892173   # H_
 298 1 3  -0.045601   8.753578   8.463980  10.402779   # C_3
 299 1 4   0.031571   8.836587   9.563171  10.505867   # H_
 300 1 3  -0.145907  10.026239   7.914384   9.618234   # C_3
 301 1 4   0.029740   7.782936   8.253456   9.884648   # H_
 302 1 4   0.056943   9.995809   6.785798   9.677851   # H_
 303 1 4   0.059719  10.992119   8.329427   9.983803   # H_
 304 1 4   0.050543   9.988150   8.255941   8.557752   # H_
 305 1 3   0.521962  17.520819   3.179581   0.000000   # C_3
 306 1 2  -0.724984  18.727859   3.528590   0.000000   # O_3
 307 1 2  -0.777582  17.171810   1.972541   0.000000   # O_3
 308 1 3  -0.134691  16.456818   4.243582   0.000000   # C_3
 309 1 3  -0.047093  15.162836   3.816533   0.000000   # C_3
 310 1 4   0.011440  14.930785   2.700574   0.000000   # H_
 311 1 2  -0.145468  13.018689   4.501509   0.854099   # O_3
 312 1 3   0.111022  14.167768   4.812636   0.000000   # C_3
 313 1 3  -0.207795  14.593782   6.106618   0.000000   # C_3
 314 1 3   0.017873  15.887764   6.532632   0.000000   # C_3
 315 1 3  -0.020533  16.883867   5.537564   0.000000   # C_3
 316 1 4   0.027038  17.999826   5.769615   0.000000   # H_
 317 1 4   0.010719  16.119815   7.648591   0.000000   # H_
 318 1 2  -0.706899  13.878790   8.377452   0.000000   # O_3
 319 1 3   0.555145  13.529781   7.170619   0.000000   # C_3
 320 1 2  -0.700763  12.322741   6.821610   0.000000   # O_3
 321 1 3  -0.235913  12.222344   3.567507   0.246749   # C_3
 322 1 3   0.122389  11.607542   4.247308  19.792894   # C_3
 323 1 4   0.144401  12.760348   2.636610  20.663346   # H_
 324 1 4   0.053276  11.436557   3.290122   0.967744   # H_
 325 1 4   0.010215  10.856325   3.474148  19.545318   # H_
 326 1 3  -0.128400  12.678581   4.507926  18.632637   # C_3
 327 1 4   0.020680  11.031450   5.115897  20.137556   # H_
 328 1 4   0.079885  13.531644   3.866835  18.736760   # H_
 329 1 4   0.061122  12.220895   4.087708  17.865894   # H_
 330 1 3   0.017133  13.080169   5.841653  17.981609   # C_3
 331 1 4   0.054507  12.603646   6.692025  18.435155   # H_
 332 1 3  -0.186125  14.565008   6.179897  17.878728   # C_3
 333 1 4   0.019728  12.754344   5.812879  16.923819   # H_
 334 1 4   0.100005  15.209619   5.438616  18.342417   # H_
 335 1 4   0.095778  14.786710   7.202911  18.247610   # H_
 336 1 4   0.060023  14.797060   6.163130  16.825699   # H_
 337 1 3   0.518193  17.520819  13.529781  10.350200   # C_3
 338 1 2  -0.693951  18.727859  13.878790  10.350200   # O_3
 339 1 2  -0.728434  17.171810  12.322741  10.350200   # O_3
 340 1 3  -0.104409  16.456818  14.593782  10.350200   # C_3
 341 1 3  -0.046544  15.162836  14.166733  10.350200   # C_3
 342 1 4   0.055308  14.930785  13.050774  10.350200   # H_
 343 1 2  -0.195023  13.031316  14.917329  11.258120   # O_3
 344 1 3   0.169075  14.167768  15.162629  10.350200   # C_3
 345 1 3  -0.189381  14.593782  16.456611  10.350200   # C_3
 346 1 3   0.048317  15.887764  16.882832  10.350200   # C_3
 347 1 3  -0.009874  16.883867  15.887764  10.350200   # C_3
 348 1 4   0.058266  17.999826  16.119815  10.350200   # H_
 349 1 4   0.034578  16.119815  17.998791  10.350200   # H_
 350 1 2  -0.615146  13.878790  18.727652  10.350200   # O_3
 351 1 3   0.559349  13.529781  17.520612  10.350200   # C_3
 352 1 2  -0.646150  12.322741  17.171603  10.350200   # O_3
 353 1 3   0.051823  12.164383  14.075444  10.631311   # C_3
 354 1 3  -0.074919  11.770454  14.658574   9.324081   # C_3
 355 1 4   0.013588  12.569904  13.048704  10.605850   # H_
 356 1 4   0.016698  11.243629  14.045428  11.258534   # H_
 357 1 4   0.031253  11.141162  13.819173   9.056011   # H_
 358 1 3  -0.068686  12.847496  14.936581   8.151611   # C_3
 359 1 4   0.023168  11.092516  15.467132   9.536881   # H_
 360 1 4   0.039495  13.671993  14.215793   8.256769   # H_
 361 1 4   0.045454  12.410097  14.615724   7.281780   # H_
 362 1 3  -0.032157  13.363350  16.276725   7.582971   # C_3
 363 1 4   0.052797  12.978323  17.131651   8.114143   # H_
 364 1 3  -0.158239  14.898699  16.384988   7.381142   # C_3
 365 1 4   0.037568  12.973562  16.383125   6.533253   # H_
 366 1 4   0.059872  15.459266  15.523230   7.786662   # H_
 367 1 4   0.074962  15.229905  17.338862   7.877330   # H_
 368 1 4   0.055294  15.128059  16.454748   6.322523   # H_
 369 1 3   0.534259   7.170619   3.179581  10.350200   # C_3
 370 1 2  -0.658193   8.377659   3.528590  10.350200   # O_3
 371 1 2  -0.664835   6.821610   1.972541  10.350200   # O_3
 372 1 3  -0.110761   6.106618   4.243582  10.350200   # C_3
 373 1 3  -0.053775   4.812636   3.816533  10.350200   # C_3
 374 1 4   0.048678   4.580585   2.700574  10.350200   # H_
 375 1 2  -0.229870   2.563538   4.493436   9.739124   # O_3
 376 1 3   0.185208   3.817568   4.812636  10.350200   # C_3
 377 1 3  -0.213917   4.243582   6.106618  10.350200   # C_3
 378 1 3   0.050995   5.537564   6.532632  10.350200   # C_3
 379 1 3  -0.016003   6.533667   5.537564  10.350200   # C_3
 380 1 4   0.038675   7.649626   5.769615  10.350200   # H_
 381 1 4   0.021727   5.769615   7.648591  10.350200   # H_
 382 1 2  -0.669464   3.528590   8.377452  10.350200   # O_3
 383 1 3   0.567288   3.179581   7.170619  10.350200   # C_3
 384 1 2  -0.651196   1.972541   6.821610  10.350200   # O_3
 385 1 3   0.056447   2.806560   4.414774   8.356958   # C_3
 386 1 3  -0.095092   3.116031   5.748708   7.564754   # C_3
 387 1 4   0.013266   3.592968   3.667904   8.142916   # H_
 388 1 4   0.018945   1.880838   3.975512   8.039828   # H_
 389 1 4   0.047142   2.529175   5.828198   6.621230   # H_
 390 1 3  -0.065213   4.609151   5.744361   7.153437   # C_3
 391 1 4   0.063610   2.838232   6.656835   8.098410   # H_
 392 1 4   0.046712   5.237201   5.180068   7.857044   # H_
 393 1 4   0.031258   4.633785   5.255211   6.179690   # H_
 394 1 3  -0.041820   5.194558   7.119489   6.972102   # C_3
 395 1 4   0.043181   5.091056   7.673431   7.920180   # H_
 396 1 3  -0.153114   6.680019   7.163580   6.583555   # C_3
 397 1 4   0.036690   4.578514   7.629132   6.204945   # H_
 398 1 4   0.054850   7.253627   6.474257   7.226096   # H_
 399 1 4   0.054736   7.065875   8.178107   6.788075   # H_
 400 1 4   0.051778   6.838998   6.926354   5.516657   # H_
 401 1 3   0.530399   7.170619  13.529781   0.000000   # C_3
 402 1 2  -0.693223   8.377659  13.878790   0.000000   # O_3
 403 1 2  -0.693426   6.821610  12.322741   0.000000   # O_3
 404 1 3  -0.128141   6.106618  14.593782   0.000000   # C_3
 405 1 3  -0.069064   4.812636  14.166733   0.000000   # C_3
 406 1 4   0.026595   4.580585  13.050774   0.000000   # H_
 407 1 2  -0.305551   2.541802  14.784847   0.569261   # O_3
 408 1 3   0.161119   3.817568  15.162629   0.000000   # C_3
 409 1 3  -0.219796   4.243582  16.456611   0.000000   # C_3
 410 1 3   0.036354   5.537564  16.882832   0.000000   # C_3
 411 1 3  -0.022577   6.533667  15.887764   0.000000   # C_3
 412 1 4   0.025333   7.649626  16.119815   0.000000   # H_
 413 1 4   0.031802   5.769615  17.998791   0.000000   # H_
 414 1 2  -0.722112   3.528590  18.727652   0.000000   # O_3
 415 1 3   0.554883   3.179581  17.520612   0.000000   # C_3
 416 1 2  -0.773097   1.972541  17.171603   0.000000   # O_3
 417 1 3   0.331984   1.960535  13.733059  20.519479   # C_3
 418 1 3  -0.213730   1.828259  14.128644  19.069415   # C_3
 419 1 4  -0.004560   2.477424  12.754344  20.566468   # H_
 420 1 4  -0.153510   0.946215  13.632869   0.211765   # H_
 421 1 4   0.064698   1.056134  13.499973  18.721649   # H_
 422 1 3  -0.020002   2.960778  14.143134  18.008520   # C_3
 423 1 4   0.113923   1.473247  15.113362  19.223219   # H_
 424 1 4   0.055609   3.760228  13.587122  18.483594   # H_
 425 1 4   0.028047   2.655447  13.642392  17.108674   # H_
 426 1 3  -0.035849   3.334006  15.567529  17.482937   # C_3
 427 1 4   0.048270   2.889362  16.315020  18.160461   # H_
 428 1 3  -0.172768   4.827954  15.822972  17.593477   # C_3
 429 1 4   0.034216   2.970921  15.822144  16.459923   # H_
 430 1 4   0.085801   4.832508  16.890491  17.917231   # H_
 431 1 4   0.064281   5.482708  15.782606  16.721162   # H_
 432 1 4   0.107194   5.254797  15.249157  18.427289   # H_
 433 1 3   0.515553  17.520819  17.520819   0.000000   # C_3
 434 1 2  -0.643192  18.727859  17.171810   0.000000   # O_3
 435 1 2  -0.643639  17.171810  18.727859   0.000000   # O_3
 436 1 3  -0.126344  16.456818  16.456818   0.000000   # C_3
 437 1 3  -0.033750  15.162836  16.883867   0.000000   # C_3
 438 1 4   0.031832  14.930785  17.999826   0.000000   # H_
 439 1 2  -0.082885  12.790984  16.375672  20.589653   # O_3
 440 1 3   0.056151  14.167768  15.887971   0.000000   # C_3
 441 1 3  -0.189006  14.593782  14.593989   0.000000   # C_3
 442 1 3   0.017317  15.887764  14.167768   0.000000   # C_3
 443 1 3  -0.018155  16.883867  15.162836   0.000000   # C_3
 444 1 4   0.025251  17.999826  14.930785   0.000000   # H_
 445 1 4   0.004293  16.119815  13.051809   0.000000   # H_
 446 1 2  -0.778279  13.878790  12.322948   0.000000   # O_3
 447 1 3   0.541049  13.529781  13.529988   0.000000   # C_3
 448 1 2  -0.775264  12.322741  13.878997   0.000000   # O_3
 449 1 3   0.037539  12.681893  16.841845  19.213697   # C_3
 450 1 3  -0.112939  11.738783  18.069172  18.806727   # C_3
 451 1 4   0.066395  13.645083  17.222112  18.787269   # H_
 452 1 4   0.049366  12.387533  15.956903  18.609039   # H_
 453 1 4   0.080866  10.669607  17.842296  18.861376   # H_
 454 1 3   0.080689  11.829244  19.418631  19.593964   # C_3
 455 1 4   0.072507  11.982013  18.342210  17.743762   # H_
 456 1 4   0.076172  12.881859  19.495223  19.928275   # H_
 457 1 4   0.064922  11.626794  20.257411  18.909608   # H_
 458 1 3  -0.303483  10.881372  19.695810   0.129170   # C_3
 459 1 4   0.209621   9.956892  20.217874  20.489463   # H_
 460 1 3  -0.070041  10.398639  18.532861   1.072902   # C_3
 461 1 4   0.102210  11.430554  20.394862   0.791376   # H_
 462 1 4   0.050404   9.753614  18.968812   1.872765   # H_
 463 1 4   0.038607  11.257706  18.014523   1.547355   # H_
 464 1 4   0.016848   9.804951  17.794685   0.512749   # H_
 465 1 3   0.515282  17.520819   7.170619  10.350200   # C_3
 466 1 2  -0.596944  18.727859   6.821610  10.350200   # O_3
 467 1 2  -0.646896  17.171810   8.377659  10.350200   # O_3
 468 1 3  -0.093046  16.456818   6.106618  10.350200   # C_3
 469 1 3  -0.066648  15.162836   6.533667  10.350200   # C_3
 470 1 4   0.066611  14.930785   7.649626  10.350200   # H_
 471 1 2  -0.224172  12.858053   5.935633  10.620961   # O_3
 472 1 3   0.208682  14.167768   5.537564  10.350200   # C_3
 473 1 3  -0.226613  14.593782   4.243582  10.350200   # C_3
 474 1 3   0.063288  15.887764   3.817568  10.350200   # C_3
 475 1 3  -0.021307  16.883867   4.812636  10.350200   # C_3
 476 1 4   0.053052  17.999826   4.580585  10.350200   # H_
 477 1 4   0.023592  16.119815   2.701609  10.350200   # H_
 478 1 2  -0.758393  13.878790   1.972748  10.350200   # O_3
 479 1 3   0.573392  13.529781   3.179581  10.350200   # C_3
 480 1 2  -0.735494  12.322741   3.528590  10.350200   # O_3
 481 1 3   0.036179  12.650014   5.891541  12.001885   # C_3
 482 1 3  -0.067593  13.137716   4.729834  12.954931   # C_3
 483 1 4   0.017136  12.510908   6.867979  12.520637   # H_
 484 1 4   0.039723  11.670472   5.500510  11.771282   # H_
 485 1 4   0.002810  12.805681   3.727107  12.677546   # H_
 486 1 3  -0.084875  14.572875   4.755089  13.332093   # C_3
 487 1 4   0.038252  12.645874   4.958781  13.900319   # H_
 488 1 4   0.055688  15.151658   5.243618  12.594744   # H_
 489 1 4   0.038355  14.579085   5.301579  14.285346   # H_