 (written by mofun)

792 atoms
0 bonds
0 angles
0 dihedrals
0 impropers

5 atom types
   0.000000  20.700400 xlo xhi
   0.000000  20.700400 ylo yhi
   0.000000  20.700400 zlo zhi

Masses

 1 91.2240   # Zr3+4
 2 15.9994   # O_3
 3 12.0107   # C_3
 4 14.0067   # N_3
 5 1.0079   # H_

Pair Coeffs

 1   0.069000   2.783168 # Zr3+4
 2   0.060000   3.118146 # O_3
 3   0.105000   3.430851 # C_3
 4   0.069000   3.260689 # N_3
 5   0.044000   2.571134 # H_

Atoms

 1 1 1   3.169070   2.481771   0.000000   0.000000   # Zr3+4
 2 1 1   3.190260   2.481771  10.350200  10.350200   # Zr3+4
 3 1 1   3.177290  12.831971   0.000000  10.350200   # Zr3+4
 4 1 1   3.180790  12.831971  10.350200   0.000000   # Zr3+4
 5 1 1   3.167390  18.218629   0.000000   0.000000   # Zr3+4
 6 1 1   3.191110  18.218629  10.350200  10.350200   # Zr3+4
 7 1 1   3.179640   7.868429   0.000000  10.350200   # Zr3+4
 8 1 1   3.178350   7.868429  10.350200   0.000000   # Zr3+4
 9 1 1   3.168880   0.000000   2.481771   0.000000   # Zr3+4
 10 1 1   3.144900   0.000000  12.831971  10.350200   # Zr3+4
 11 1 1   3.190270  10.350200   2.481771  10.350200   # Zr3+4
 12 1 1   3.180770  10.350200  12.831971   0.000000   # Zr3+4
 13 1 1   3.166840   0.000000  18.218629   0.000000   # Zr3+4
 14 1 1   3.211170   0.000000   7.868429  10.350200   # Zr3+4
 15 1 1   3.191050  10.350200  18.218629  10.350200   # Zr3+4
 16 1 1   3.178670  10.350200   7.868429   0.000000   # Zr3+4
 17 1 1   3.199270   0.000000   0.000000   2.481771   # Zr3+4
 18 1 1   3.176950   0.000000  10.350200  12.831971   # Zr3+4
 19 1 1   3.145220  10.350200   0.000000  12.831971   # Zr3+4
 20 1 1   3.190810  10.350200  10.350200   2.481771   # Zr3+4
 21 1 1   3.135310   0.000000   0.000000  18.218629   # Zr3+4
 22 1 1   3.179530   0.000000  10.350200   7.868429   # Zr3+4
 23 1 1   3.211370  10.350200   0.000000   7.868429   # Zr3+4
 24 1 1   3.191530  10.350200  10.350200  18.218629   # Zr3+4
 25 1 2  -1.312410   1.161292   9.188908   9.188908   # O_3
 26 1 2  -1.220700  11.511492  19.539108   9.188908   # O_3
 27 1 2  -1.328990  11.511492   9.188908  19.539108   # O_3
 28 1 2  -1.311860   9.188908   1.161292   9.188908   # O_3
 29 1 2  -1.329480   9.188908  11.511492  19.539108   # O_3
 30 1 2  -1.178580  19.539108  19.539108   1.161292   # O_3
 31 1 2  -1.219200  19.539108   9.188908  11.511492   # O_3
 32 1 2  -1.361830   1.161292   1.161292   1.161292   # O_3
 33 1 2  -1.415020  11.511492  11.511492   1.161292   # O_3
 34 1 2  -1.355690  19.539108   1.161292   1.161292   # O_3
 35 1 2  -1.444990  19.539108  11.511492  11.511492   # O_3
 36 1 2  -1.536170   9.188908   1.161292  11.511492   # O_3
 37 1 2  -1.424190   9.188908  11.511492   1.161292   # O_3
 38 1 2  -1.358470   1.161292  19.539108   1.161292   # O_3
 39 1 2  -1.408780   1.161292   9.188908  11.511492   # O_3
 40 1 2  -1.446080  11.511492  19.539108  11.511492   # O_3
 41 1 2  -1.424250  11.511492   9.188908   1.161292   # O_3
 42 1 2  -1.311230  19.539108  19.539108  19.539108   # O_3
 43 1 2  -1.308580  19.539108   9.188908   9.188908   # O_3
 44 1 2  -1.310350   9.188908  19.539108   9.188908   # O_3
 45 1 2  -1.341020   9.188908   9.188908  19.539108   # O_3
 46 1 2  -1.487300   1.161292   1.161292  19.539108   # O_3
 47 1 2  -1.536750   1.161292  11.511492   9.188908   # O_3
 48 1 2  -1.408140  11.511492   1.161292   9.188908   # O_3
 49 1 3   0.533849   3.179581   0.000000  17.520819   # C_3
 50 1 2  -0.729492   3.528590   0.000000  18.727859   # O_3
 51 1 2  -0.798743   1.972541   0.000000  17.171810   # O_3
 52 1 3  -0.168366   4.243582   0.000000  16.456818   # C_3
 53 1 3   0.016809   3.816533   0.000000  15.162836   # C_3
 54 1 4  -0.088811   2.368126  20.321376  14.807824   # N_3
 55 1 5   0.011354   4.580585   0.000000  13.051809   # H_
 56 1 3  -0.009966   4.812636   0.000000  14.167768   # C_3
 57 1 3  -0.162208   6.106618   0.000000  14.593782   # C_3
 58 1 3   0.001516   6.532632   0.000000  15.887764   # C_3
 59 1 3   0.006241   5.537564   0.000000  16.883867   # C_3
 60 1 5   0.031699   5.769615   0.000000  17.999826   # H_
 61 1 5   0.018092   7.648591   0.000000  16.119815   # H_
 62 1 2  -0.791501   8.377452   0.000000  13.878790   # O_3
 63 1 3   0.534512   7.170619   0.000000  13.529781   # C_3
 64 1 2  -0.781098   6.821610   0.000000  12.322741   # O_3
 65 1 5   0.102441   2.225914  19.364603  15.240669   # H_
 66 1 3   0.155829   2.152428  20.194275  13.331472   # C_3
 67 1 5  -0.066412   2.536006   0.373228  12.786430   # H_
 68 1 3   0.089149   0.680629  20.168814  13.001921   # C_3
 69 1 3  -0.143836   2.825398  18.879386  12.869232   # C_3
 70 1 3   0.043386   1.969850  18.272036  11.896106   # C_3
 71 1 5  -0.002953   1.800728  17.234739  12.209510   # H_
 72 1 5   0.022559   2.521309  18.254855  10.937677   # H_
 73 1 3  -0.289201   0.745628  19.134001  11.798400   # C_3
 74 1 5  -0.091741   0.364120   0.450027  12.688724   # H_
 75 1 5  -0.006107   0.057547  19.894533  13.867198   # H_
 76 1 5   0.189063  20.621945  18.426461  11.877476   # H_
 77 1 5   0.107620   0.610455  19.599553  10.819271   # H_
 78 1 5   0.069371   2.909234  18.137690  13.695799   # H_
 79 1 5   0.098115   3.834956  18.950802  12.404301   # H_
 80 1 3   0.562364   3.179581  10.350200   7.170619   # C_3
 81 1 2  -0.666381   3.528590  10.350200   8.377659   # O_3
 82 1 2  -0.666986   1.972541  10.350200   6.821610   # O_3
 83 1 3  -0.188398   4.243582  10.350200   6.106618   # C_3
 84 1 3   0.114784   3.816533  10.350200   4.812636   # C_3
 85 1 4  -0.156060   2.378269  10.110075   4.377307   # N_3
 86 1 5   0.040604   4.580585  10.350200   2.701609   # H_
 87 1 3  -0.023651   4.812636  10.350200   3.817568   # C_3
 88 1 3  -0.130542   6.106618  10.350200   4.243582   # C_3
 89 1 3  -0.002985   6.532632  10.350200   5.537564   # C_3
 90 1 3   0.035375   5.537564  10.350200   6.533667   # C_3
 91 1 5   0.026350   5.769615  10.350200   7.649626   # H_
 92 1 5   0.035883   7.648591  10.350200   5.769615   # H_
 93 1 2  -0.744007   8.377452  10.350200   3.528590   # O_3
 94 1 3   0.530713   7.170619  10.350200   3.179581   # C_3
 95 1 2  -0.751597   6.821610  10.350200   1.972541   # O_3
 96 1 5   0.089056   2.006490   9.266948   4.884880   # H_
 97 1 3   0.041093   2.210389   9.748853   2.931177   # C_3
 98 1 5   0.013820   2.527519  10.599433   2.277458   # H_
 99 1 3  -0.103056   0.715199   9.507694   2.661450   # C_3
 100 1 3  -0.093645   2.936145   8.380971   2.552152   # C_3
 101 1 3  -0.063933   2.065693   7.846280   1.356704   # C_3
 102 1 5   0.033698   2.026983   6.745018   1.516718   # H_
 103 1 5   0.007052   2.478045   8.157407   0.380266   # H_
 104 1 3  -0.044948   0.721409   8.447005   1.563915   # C_3
 105 1 5   0.013248   0.236813  10.414371   2.282840   # H_
 106 1 5   0.021119   0.150285   9.193048   3.530039   # H_
 107 1 5  -0.009533   0.110540   7.619817   1.856826   # H_
 108 1 5  -0.028856   0.357082   8.868051   0.592238   # H_
 109 1 5   0.052951   2.763710   7.679434   3.422190   # H_
 110 1 5   0.047411   3.990002   8.362962   2.245372   # H_
 111 1 3   0.543931  13.529781   0.000000   7.170619   # C_3
 112 1 2  -0.704857  13.878790   0.000000   8.377659   # O_3
 113 1 2  -0.708829  12.322741   0.000000   6.821610   # O_3
 114 1 3  -0.175633  14.593782   0.000000   6.106618   # C_3
 115 1 3   0.019318  14.166733   0.000000   4.812636   # C_3
 116 1 4  -0.090709  12.696797  20.604557   4.433612   # N_3
 117 1 5   0.010578  14.930785   0.000000   2.701609   # H_
 118 1 3  -0.012744  15.162629   0.000000   3.817568   # C_3
 119 1 3  -0.143417  16.456611   0.000000   4.243582   # C_3
 120 1 3  -0.003497  16.882832   0.000000   5.537564   # C_3
 121 1 3   0.014973  15.887764   0.000000   6.533667   # C_3
 122 1 5   0.016396  16.119815   0.000000   7.649626   # H_
 123 1 5   0.041263  17.998791   0.000000   5.769615   # H_
 124 1 2  -0.636163  18.727652   0.000000   3.528590   # O_3
 125 1 3   0.530910  17.520612   0.000000   3.179581   # C_3
 126 1 2  -0.704083  17.171603   0.000000   1.972541   # O_3
 127 1 5   0.114831  12.316738  19.755634   4.908272   # H_
 128 1 3   0.173825  12.423552  20.250166   3.067385   # C_3
 129 1 5  -0.080881  12.894693   0.297672   2.483634   # H_
 130 1 3   0.033420  10.953203  20.232778   2.713201   # C_3
 131 1 3  -0.126909  12.925951  18.797412   2.751083   # C_3
 132 1 3  -0.022918  12.030865  18.220285   1.671971   # C_3
 133 1 5   0.024707  11.903351  17.128753   1.791827   # H_
 134 1 5   0.019758  12.480064  18.353596   0.658894   # H_
 135 1 3  -0.096793  10.795673  19.081422   1.661207   # C_3
 136 1 5  -0.051587  10.718253   0.453339   2.242888   # H_
 137 1 5   0.052491  10.320805  20.131346   3.636232   # H_
 138 1 5   0.046693   9.882785  18.549628   1.803833   # H_
 139 1 5   0.056989  10.751581  19.508471   0.659929   # H_
 140 1 5   0.070145  12.855362  18.092357   3.615532   # H_
 141 1 5   0.092918  13.965732  18.755183   2.335212   # H_
 142 1 3   0.543657  13.529781  10.350200  17.520819   # C_3
 143 1 2  -0.691409  13.878790  10.350200  18.727859   # O_3
 144 1 2  -0.732878  12.322741  10.350200  17.171810   # O_3
 145 1 3  -0.180342  14.593782  10.350200  16.456818   # C_3
 146 1 3   0.113192  14.166733  10.350200  15.162836   # C_3
 147 1 4  -0.155565  12.710874  10.088340  14.754831   # N_3
 148 1 5   0.048447  14.930785  10.350200  13.051809   # H_
 149 1 3  -0.025966  15.162629  10.350200  14.167768   # C_3
 150 1 3  -0.111514  16.456611  10.350200  14.593782   # C_3
 151 1 3   0.001926  16.882832  10.350200  15.887764   # C_3
 152 1 3   0.042117  15.887764  10.350200  16.883867   # C_3
 153 1 5   0.053037  16.119815  10.350200  17.999826   # H_
 154 1 5   0.067718  17.998791  10.350200  16.119815   # H_
 155 1 2  -0.603207  18.727652  10.350200  13.878790   # O_3
 156 1 3   0.527425  17.520612  10.350200  13.529781   # C_3
 157 1 2  -0.649801  17.171603  10.350200  12.322741   # O_3
 158 1 5   0.094446  12.358967   9.231964  15.251848   # H_
 159 1 3   0.045954  12.432867   9.787149  13.297316   # C_3
 160 1 5   0.017996  12.925951  10.569831  12.679616   # H_
 161 1 3  -0.104392  10.957757   9.790668  12.960520   # C_3
 162 1 3  -0.099487  12.860952   8.383869  12.877512   # C_3
 163 1 3  -0.052424  12.152998   8.135050  11.555377   # C_3
 164 1 5   0.031542  11.813304   7.082435  11.404885   # H_
 165 1 5   0.037765  12.811271   8.495237  10.725498   # H_
 166 1 3  -0.055806  10.829000   8.910487  11.678338   # C_3
 167 1 5   0.050804  10.562379  10.765243  12.762625   # H_
 168 1 5   0.048159  10.424100   9.340848  13.824969   # H_
 169 1 5   0.028805  10.004710   8.163410  11.793018   # H_
 170 1 5   0.029874  10.686374   9.496723  10.773316   # H_
 171 1 5   0.054115  12.615652   7.610295  13.630799   # H_
 172 1 5   0.056571  13.948551   8.391528  12.697418   # H_
 173 1 3   0.520083  17.520819   0.000000  17.520819   # C_3
 174 1 2  -0.737278  17.171810   0.000000  18.727859   # O_3
 175 1 2  -0.745118  18.727859   0.000000  17.171810   # O_3
 176 1 3  -0.171750  16.456818   0.000000  16.456818   # C_3
 177 1 3   0.028157  16.883867   0.000000  15.162836   # C_3
 178 1 4  -0.084185  18.091529  19.708023  14.766216   # N_3
 179 1 5   0.011340  16.119815   0.000000  13.051809   # H_
 180 1 3  -0.018115  15.887971   0.000000  14.167768   # C_3
 181 1 3  -0.165766  14.593989   0.000000  14.593782   # C_3
 182 1 3  -0.011497  14.167768   0.000000  15.887764   # C_3
 183 1 3  -0.009628  15.162836   0.000000  16.883867   # C_3
 184 1 5   0.012811  14.930785   0.000000  17.999826   # H_
 185 1 5   0.003178  13.051809   0.000000  16.119815   # H_
 186 1 2  -0.800705  12.322948   0.000000  13.878790   # O_3
 187 1 3   0.529893  13.529988   0.000000  13.529781   # C_3
 188 1 2  -0.789545  13.878997   0.000000  12.322741   # O_3
 189 1 5   0.144791  18.602621  19.182440  15.529026   # H_
 190 1 3   0.066367  17.478797  18.568673  13.893073   # C_3
 191 1 5   0.057236  16.853024  18.935898  13.070440   # H_
 192 1 3  -0.103594  16.710812  17.587060  14.689211   # C_3
 193 1 3  -0.095101  18.331032  17.649368  13.038147   # C_3
 194 1 3  -0.066596  17.868378  16.225595  13.288001   # C_3
 195 1 5   0.078582  18.370984  15.866650  14.138166   # H_
 196 1 5   0.068772  17.944556  15.485348  12.510494   # H_
 197 1 3  -0.047028  16.483315  16.405688  13.806339   # C_3
 198 1 5   0.074458  15.737479  18.006657  14.947759   # H_
 199 1 5   0.066621  17.251092  17.394753  15.641222   # H_
 200 1 5   0.032741  16.140309  15.462785  14.252018   # H_
 201 1 5   0.047112  15.764804  16.635669  13.012685   # H_
 202 1 5   0.093598  19.352597  17.837535  13.328367   # H_
 203 1 5   0.065532  18.245540  17.890114  11.941026   # H_
 204 1 3   0.537752  17.520819  10.350200   7.170619   # C_3
 205 1 2  -0.740076  17.171810  10.350200   8.377659   # O_3
 206 1 2  -0.689647  18.727859  10.350200   6.821610   # O_3
 207 1 3  -0.183806  16.456818  10.350200   6.106618   # C_3
 208 1 3   0.113218  16.883867  10.350200   4.812636   # C_3
 209 1 4  -0.150951  18.073519   9.438140   4.423468   # N_3
 210 1 5   0.040142  16.119815  10.350200   2.701609   # H_
 211 1 3  -0.020793  15.887971  10.350200   3.817568   # C_3
 212 1 3  -0.130468  14.593989  10.350200   4.243582   # C_3
 213 1 3  -0.000357  14.167768  10.350200   5.537564   # C_3
 214 1 3   0.028749  15.162836  10.350200   6.533667   # C_3
 215 1 5   0.028364  14.930785  10.350200   7.649626   # H_
 216 1 5   0.032826  13.051809  10.350200   5.769615   # H_
 217 1 2  -0.660500  12.322948  10.350200   3.528590   # O_3
 218 1 3   0.539009  13.529988  10.350200   3.179581   # C_3
 219 1 2  -0.667457  13.878997  10.350200   1.972541   # O_3
 220 1 5   0.120451  18.394582   8.892064   5.236787   # H_
 221 1 3   0.051805  17.594098   8.381799   3.432333   # C_3
 222 1 5   0.019598  17.675865   8.772209   2.374957   # H_
 223 1 3  -0.092174  16.171773   7.740915   3.673907   # C_3
 224 1 3  -0.107732  18.333309   7.107689   3.511823   # C_3
 225 1 3  -0.045703  17.622665   6.075981   2.815461   # C_3
 226 1 5   0.062368  17.997756   5.019226   2.818359   # H_
 227 1 5   0.051200  17.743141   6.447347   1.882701   # H_
 228 1 3  -0.064721  16.204480   6.278845   3.276459   # C_3
 229 1 5   0.054824  15.330302   8.181005   3.115410   # H_
 230 1 5   0.048608  15.966426   7.739466   4.775168   # H_
 231 1 5   0.036877  16.072619   5.636512   4.164506   # H_
 232 1 5   0.050501  15.443326   6.079500   2.582375   # H_
 233 1 5   0.084333  18.450681   6.806085   4.578100   # H_
 234 1 5   0.102638  19.251786   7.313451   2.979823   # H_
 235 1 3   0.538522   7.170619   0.000000   7.170619   # C_3
 236 1 2  -0.713439   6.821610   0.000000   8.377659   # O_3
 237 1 2  -0.708938   8.377659   0.000000   6.821610   # O_3
 238 1 3  -0.187275   6.106618   0.000000   6.106618   # C_3
 239 1 3   0.028411   6.533667   0.000000   4.812636   # C_3
 240 1 4  -0.099288   7.578416  19.645301   4.420984   # N_3
 241 1 5   0.007583   5.769615   0.000000   2.701609   # H_
 242 1 3  -0.017105   5.537564   0.000000   3.817568   # C_3
 243 1 3  -0.163862   4.243582   0.000000   4.243582   # C_3
 244 1 3  -0.012718   3.817568   0.000000   5.537564   # C_3
 245 1 3  -0.002140   4.812636   0.000000   6.533667   # C_3
 246 1 5  -0.009202   4.580585   0.000000   7.649626   # H_
 247 1 5  -0.000155   2.701609   0.000000   5.769615   # H_
 248 1 2  -0.702551   1.972748   0.000000   3.528590   # O_3
 249 1 3   0.537124   3.179581   0.000000   3.179581   # C_3
 250 1 2  -0.713535   3.528590   0.000000   1.972541   # O_3
 251 1 5   0.117967   7.980832  19.168570   5.253141   # H_
 252 1 3   0.069855   7.019299  18.550870   3.460072   # C_3
 253 1 5   0.041428   7.009776  18.921822   2.396071   # H_
 254 1 3  -0.094778   5.620780  17.965463   3.709305   # C_3
 255 1 3  -0.114626   7.772793  17.339069   3.568956   # C_3
 256 1 3  -0.043534   7.031926  16.183573   3.057656   # C_3
 257 1 5   0.034932   7.257353  15.196371   3.505820   # H_
 258 1 5   0.042195   7.361269  16.136583   2.056792   # H_
 259 1 3  -0.058711   5.664871  16.539620   3.214772   # C_3
 260 1 5   0.088077   4.780964  18.430187   3.134041   # H_
 261 1 5   0.069958   5.404046  17.965256   4.768751   # H_
 262 1 5   0.033735   5.170546  15.868927   3.925003   # H_
 263 1 5   0.052123   5.111550  16.393475   2.311821   # H_
 264 1 5   0.055487   7.938189  17.081142   4.635855   # H_
 265 1 5   0.051270   8.688579  17.500118   3.059933   # H_
 266 1 3   0.547249   7.170619  10.350200  17.520819   # C_3
 267 1 2  -0.626309   6.821610  10.350200  18.727859   # O_3
 268 1 2  -0.660071   8.377659  10.350200  17.171810   # O_3
 269 1 3  -0.180029   6.106618  10.350200  16.456818   # C_3
 270 1 3   0.106526   6.533667  10.350200  15.162836   # C_3
 271 1 4  -0.163312   7.618575   9.316008  14.776567   # N_3
 272 1 5   0.041221   5.769615  10.350200  13.051809   # H_
 273 1 3  -0.019929   5.537564  10.350200  14.167768   # C_3
 274 1 3  -0.135572   4.243582  10.350200  14.593782   # C_3
 275 1 3  -0.000803   3.817568  10.350200  15.887764   # C_3
 276 1 3   0.027811   4.812636  10.350200  16.883867   # C_3
 277 1 5   0.031626   4.580585  10.350200  17.999826   # H_
 278 1 5   0.030813   2.701609  10.350200  16.119815   # H_
 279 1 2  -0.753250   1.972748  10.350200  13.878790   # O_3
 280 1 3   0.530037   3.179581  10.350200  13.529781   # C_3
 281 1 2  -0.745962   3.528590  10.350200  12.322741   # O_3
 282 1 5   0.094060   7.993045   8.837001  15.623420   # H_
 283 1 3   0.057101   7.094648   8.213505  13.901354   # C_3
 284 1 5   0.013887   6.968997   8.610538  12.867990   # H_
 285 1 3  -0.096812   5.820331   7.509277  14.280378   # C_3
 286 1 3  -0.105468   8.035688   7.154472  13.947102   # C_3
 287 1 3  -0.061093   7.377830   6.062112  13.252396   # C_3
 288 1 5   0.046793   7.832203   5.123970  13.394194   # H_
 289 1 5   0.043105   7.466634   6.370548  12.256086   # H_
 290 1 3  -0.054992   5.932528   6.116968  13.696627   # C_3
 291 1 5   0.053097   4.891919   7.970275  13.825590   # H_
 292 1 5   0.049242   5.728008   7.526872  15.387021   # H_
 293 1 5   0.035141   5.789074   5.285433  14.378084   # H_
 294 1 5   0.044859   5.203253   6.033546  12.877926   # H_
 295 1 5   0.056836   8.105449   6.796769  14.964733   # H_
 296 1 5   0.045197   8.960375   7.470360  13.426900   # H_
 297 1 3   0.531390  17.520819   3.179581   0.000000   # C_3
 298 1 2  -0.722307  18.727859   3.528590   0.000000   # O_3
 299 1 2  -0.785952  17.171810   1.972541   0.000000   # O_3
 300 1 3  -0.167254  16.456818   4.243582   0.000000   # C_3
 301 1 3   0.024716  15.162836   3.816533   0.000000   # C_3
 302 1 4  -0.091116  14.791885   2.370403  20.361327   # N_3
 303 1 5   0.017071  13.051809   4.580585   0.000000   # H_
 304 1 3  -0.010577  14.167768   4.812636   0.000000   # C_3
 305 1 3  -0.154822  14.593782   6.106618   0.000000   # C_3
 306 1 3   0.003850  15.887764   6.532632   0.000000   # C_3
 307 1 3   0.008565  16.883867   5.537564   0.000000   # C_3
 308 1 5   0.037874  17.999826   5.769615   0.000000   # H_
 309 1 5   0.021479  16.119815   7.648591   0.000000   # H_
 310 1 2  -0.699445  13.878790   8.377452   0.000000   # O_3
 311 1 3   0.539459  13.529781   7.170619   0.000000   # C_3
 312 1 2  -0.697909  12.322741   6.821610   0.000000   # O_3
 313 1 5   0.103071  15.219555   2.108129  19.443265   # H_
 314 1 3   0.135078  13.353207   2.069833  20.212285   # C_3
 315 1 5  -0.057130  12.824726   2.481150   0.405107   # H_
 316 1 3   0.108747  13.109356   0.577748  20.200899   # C_3
 317 1 3  -0.132152  12.884343   2.572025  18.829498   # C_3
 318 1 3   0.031667  11.726984   1.687290  18.480903   # C_3
 319 1 5  -0.002684  11.675440   1.446751  17.399100   # H_
 320 1 5   0.036247  10.789876   2.232952  18.752492   # H_
 321 1 3  -0.285673  11.905421   0.429533  19.313887   # C_3
 322 1 5  -0.097489  12.769456   0.233087   0.446922   # H_
 323 1 5  -0.006715  14.013757   0.009522  19.911508   # H_
 324 1 5   0.181033  11.943717  20.226361  18.673210   # H_
 325 1 5   0.102575  10.973903   0.362464  19.882734   # H_
 326 1 5   0.061753  13.649430   2.323206  18.066067   # H_
 327 1 5   0.093646  12.648565   3.672665  18.734483   # H_
 328 1 3   0.545371  17.520819  13.529781  10.350200   # C_3
 329 1 2  -0.701040  18.727859  13.878790  10.350200   # O_3
 330 1 2  -0.732488  17.171810  12.322741  10.350200   # O_3
 331 1 3  -0.183847  16.456818  14.593782  10.350200   # C_3
 332 1 3   0.116840  15.162836  14.166733  10.350200   # C_3
 333 1 4  -0.154670  14.725851  12.756414  10.037003   # N_3
 334 1 5   0.048959  13.051809  14.930785  10.350200   # H_
 335 1 3  -0.026926  14.167768  15.162629  10.350200   # C_3
 336 1 3  -0.110865  14.593782  16.456611  10.350200   # C_3
 337 1 3   0.000791  15.887764  16.882832  10.350200   # C_3
 338 1 3   0.042265  16.883867  15.887764  10.350200   # C_3
 339 1 5   0.051907  17.999826  16.119815  10.350200   # H_
 340 1 5   0.066072  16.119815  17.998791  10.350200   # H_
 341 1 2  -0.603803  13.878790  18.727652  10.350200   # O_3
 342 1 3   0.527876  13.529781  17.520612  10.350200   # C_3
 343 1 2  -0.649870  12.322741  17.171603  10.350200   # O_3
 344 1 5   0.086500  15.241291  12.466402   9.164481   # H_
 345 1 3   0.040671  13.269370  12.622483   9.749267   # C_3
 346 1 5   0.019506  12.750618  12.934645  10.692999   # H_
 347 1 3  -0.098889  12.874200  11.153169   9.625479   # C_3
 348 1 3  -0.089754  12.761383  13.238320   8.390286   # C_3
 349 1 3  -0.058860  11.735264  12.263124   7.773621   # C_3
 350 1 5   0.038421  11.944752  12.020722   6.712519   # H_
 351 1 5   0.039939  10.720323  12.675062   7.877951   # H_
 352 1 3  -0.049369  11.777907  10.990256   8.562306   # C_3
 353 1 5   0.046130  12.431832  10.846803  10.568589   # H_
 354 1 5   0.048462  13.777772  10.528223   9.446214   # H_
 355 1 5   0.028632  12.031900  10.185839   7.882919   # H_
 356 1 5   0.025413  10.755100  10.729017   9.004467   # H_
 357 1 5   0.054111  13.656468  13.323812   7.713797   # H_
 358 1 5   0.054204  12.311770  14.260299   8.501861   # H_
 359 1 3   0.562249   7.170619   3.179581  10.350200   # C_3
 360 1 2  -0.666535   8.377659   3.528590  10.350200   # O_3
 361 1 2  -0.669005   6.821610   1.972541  10.350200   # O_3
 362 1 3  -0.185750   6.106618   4.243582  10.350200   # C_3
 363 1 3   0.109119   4.812636   3.816533  10.350200   # C_3
 364 1 4  -0.162435   4.345014   2.327346  10.154167   # N_3
 365 1 5   0.038647   2.701609   4.580585  10.350200   # H_
 366 1 3  -0.020565   3.817568   4.812636  10.350200   # C_3
 367 1 3  -0.127489   4.243582   6.106618  10.350200   # C_3
 368 1 3  -0.002633   5.537564   6.532632  10.350200   # C_3
 369 1 3   0.034716   6.533667   5.537564  10.350200   # C_3
 370 1 5   0.025945   7.649626   5.769615  10.350200   # H_
 371 1 5   0.036231   5.769615   7.648591  10.350200   # H_
 372 1 2  -0.660547   3.528590   8.377452  10.350200   # O_3
 373 1 3   0.537628   3.179581   7.170619  10.350200   # C_3
 374 1 2  -0.658996   1.972541   6.821610  10.350200   # O_3
 375 1 5   0.083423   4.888399   1.936522   9.352027   # H_
 376 1 3   0.072450   2.909027   2.062174   9.868502   # C_3
 377 1 5   0.008949   2.316996   2.532487  10.666088   # H_
 378 1 3  -0.222450   2.488188   0.536140   9.823789   # C_3
 379 1 3  -0.118058   2.587550   2.545321   8.462738   # C_3
 380 1 3  -0.017579   1.447372   1.713372   7.915626   # C_3
 381 1 5   0.008609   1.633883   1.512578   6.826992   # H_
 382 1 5  -0.002956   0.507367   2.336868   7.992217   # H_
 383 1 3  -0.173808   1.337660   0.481284   8.791046   # C_3
 384 1 5   0.038842   2.261726   0.138693  10.772488   # H_
 385 1 5   0.168113   3.328417  20.623809   9.406469   # H_
 386 1 5   0.126450   1.416321  20.278319   8.162789   # H_
 387 1 5  -0.010160   0.311955   0.474246   9.319320   # H_
 388 1 5   0.056066   3.450964   2.408492   7.767411   # H_
 389 1 5   0.053512   2.253032   3.608494   8.438104   # H_
 390 1 3   0.547029   7.170619  13.529781   0.000000   # C_3
 391 1 2  -0.702118   8.377659  13.878790   0.000000   # O_3
 392 1 2  -0.710086   6.821610  12.322741   0.000000   # O_3
 393 1 3  -0.179563   6.106618  14.593782   0.000000   # C_3
 394 1 3   0.031004   4.812636  14.166733   0.000000   # C_3
 395 1 4  -0.096324   4.413946  12.749997  20.222014   # N_3
 396 1 5   0.010202   2.701609  14.930785   0.000000   # H_
 397 1 3  -0.015803   3.817568  15.162629   0.000000   # C_3
 398 1 3  -0.148476   4.243582  16.456611   0.000000   # C_3
 399 1 3  -0.004752   5.537564  16.882832   0.000000   # C_3
 400 1 3   0.016050   6.533667  15.887764   0.000000   # C_3
 401 1 5   0.016318   7.649626  16.119815   0.000000   # H_
 402 1 5   0.040144   5.769615  17.998791   0.000000   # H_
 403 1 2  -0.723351   3.528590  18.727652   0.000000   # O_3
 404 1 3   0.525272   3.179581  17.520612   0.000000   # C_3
 405 1 2  -0.781464   1.972541  17.171603   0.000000   # O_3
 406 1 5   0.109756   4.881982  12.533471  19.312231   # H_
 407 1 3   0.155979   2.983963  12.340129  20.068003   # C_3
 408 1 5  -0.070591   2.410769  12.714186   0.229153   # H_
 409 1 3   0.030358   2.661036  10.830449  19.933864   # C_3
 410 1 3  -0.126041   2.430020  12.899454  18.747731   # C_3
 411 1 3  -0.020879   1.319650  11.980564  18.280937   # C_3
 412 1 5   0.017101   1.358153  11.915150  17.173880   # H_
 413 1 5   0.014294   0.341350  12.392915  18.586061   # H_
 414 1 3  -0.094779   1.482149  10.652012  18.934863   # C_3
 415 1 5  -0.052452   2.287394  10.473781   0.166431   # H_
 416 1 5   0.046943   3.566679  10.262637  19.717338   # H_
 417 1 5   0.038537   1.449856   9.877196  18.195652   # H_
 418 1 5   0.058255   0.572573  10.493654  19.551321   # H_
 419 1 5   0.062330   3.194279  12.800299  17.957804   # H_
 420 1 5   0.084517   2.134625  13.986846  18.794100   # H_
 421 1 3   0.525878  17.520819  17.520819   0.000000   # C_3
 422 1 2  -0.660490  18.727859  17.171810   0.000000   # O_3
 423 1 2  -0.652951  17.171810  18.727859   0.000000   # O_3
 424 1 3  -0.170657  16.456818  16.456818   0.000000   # C_3
 425 1 3   0.037931  15.162836  16.883867   0.000000   # C_3
 426 1 4  -0.089800  14.780707  17.961530  19.591894   # N_3
 427 1 5   0.014500  13.051809  16.119815   0.000000   # H_
 428 1 3  -0.016748  14.167768  15.887971   0.000000   # C_3
 429 1 3  -0.161480  14.593782  14.593989   0.000000   # C_3
 430 1 3  -0.008783  15.887764  14.167768   0.000000   # C_3
 431 1 3  -0.006479  16.883867  15.162836   0.000000   # C_3
 432 1 5   0.009567  17.999826  14.930785   0.000000   # H_
 433 1 5   0.004330  16.119815  13.051809   0.000000   # H_
 434 1 2  -0.779951  13.878790  12.322948   0.000000   # O_3
 435 1 3   0.527600  13.529781  13.529988   0.000000   # C_3
 436 1 2  -0.780463  12.322741  13.878997   0.000000   # O_3
 437 1 5   0.134228  15.641429  18.200827  19.052234   # H_
 438 1 3   0.061893  13.820208  17.396409  18.492702   # C_3
 439 1 5   0.047202  12.763867  17.338241  18.851647   # H_
 440 1 3  -0.103008  13.974633  16.027699  17.800067   # C_3
 441 1 3  -0.096136  13.950000  18.248852  17.322923   # C_3
 442 1 3  -0.058512  13.436009  17.606518  16.136997   # C_3
 443 1 5   0.068569  13.702009  18.133757  15.192438   # H_
 444 1 5   0.057667  12.405336  17.745004  16.247330   # H_
 445 1 3  -0.048867  13.768250  16.227458  16.299702   # C_3
 446 1 5   0.067181  13.205199  15.330095  18.137483   # H_
 447 1 5   0.071656  14.990609  15.666270  18.043090   # H_
 448 1 5   0.033364  14.592747  16.169496  15.595474   # H_
 449 1 5   0.039515  12.936301  15.560698  15.980088   # H_
 450 1 5   0.083037  15.029732  18.372433  17.128132   # H_
 451 1 5   0.087533  13.389019  19.179749  17.569672   # H_
 452 1 3   0.542690  17.520819   7.170619  10.350200   # C_3
 453 1 2  -0.612908  18.727859   6.821610  10.350200   # O_3
 454 1 2  -0.656761  17.171810   8.377659  10.350200   # O_3
 455 1 3  -0.176432  16.456818   6.106618  10.350200   # C_3
 456 1 3   0.103337  15.162836   6.533667  10.350200   # C_3
 457 1 4  -0.156153  14.838875   7.619817   9.276470   # N_3
 458 1 5   0.041332  13.051809   5.769615  10.350200   # H_
 459 1 3  -0.017931  14.167768   5.537564  10.350200   # C_3
 460 1 3  -0.136165  14.593782   4.243582  10.350200   # C_3
 461 1 3  -0.000161  15.887764   3.817568  10.350200   # C_3
 462 1 3   0.025340  16.883867   4.812636  10.350200   # C_3
 463 1 5   0.030966  17.999826   4.580585  10.350200   # H_
 464 1 5   0.029392  16.119815   2.701609  10.350200   # H_
 465 1 2  -0.752853  13.878790   1.972748  10.350200   # O_3
 466 1 3   0.530333  13.529781   3.179581  10.350200   # C_3
 467 1 2  -0.746534  12.322741   3.528590  10.350200   # O_3
 468 1 5   0.091320  15.695043   7.763478   8.688993   # H_
 469 1 3   0.039826  13.774046   7.105205   8.261737   # C_3
 470 1 5   0.016636  12.741717   7.276191   8.658563   # H_
 471 1 3  -0.082897  13.968630   5.673773   7.677985   # C_3
 472 1 3  -0.100744  13.871959   7.880021   7.034617   # C_3
 473 1 3  -0.057572  13.442012   7.114934   5.823644   # C_3
 474 1 5   0.038700  13.930127   7.428546   4.899578   # H_
 475 1 5   0.047951  12.432039   7.364995   5.723454   # H_
 476 1 3  -0.061340  13.704493   5.692196   6.186315   # C_3
 477 1 5   0.052862  13.306424   4.824849   8.072328   # H_
 478 1 5   0.048840  15.018968   5.341117   7.828891   # H_
 479 1 5   0.036728  14.581362   5.502580   5.626990   # H_
 480 1 5   0.046034  12.958450   5.008255   5.800459   # H_
 481 1 5   0.055594  14.911326   8.062599   6.843966   # H_
 482 1 5   0.045060  13.277858   8.785250   7.144950   # H_
 483 1 3   0.536391   7.170619  17.520819  10.350200   # C_3
 484 1 2  -0.742226   8.377659  17.171810  10.350200   # O_3
 485 1 2  -0.692507   6.821610  18.727859  10.350200   # O_3
 486 1 3  -0.183105   6.106618  16.456818  10.350200   # C_3
 487 1 3   0.104436   4.812636  16.883867  10.350200   # C_3
 488 1 4  -0.151181   4.474598  18.075382   9.390529   # N_3