 (written by mofun)

680 atoms
0 bonds
0 angles
0 dihedrals
0 impropers

4 atom types
   0.000000  26.896000 xlo xhi
   0.000000  26.896000 ylo yhi
   0.000000  26.896000 zlo zhi

Masses

 1 91.2240   # Zr3+4
 2 15.9994   # O_3
 3 12.0107   # C_3
 4 1.0079   # H_

Pair Coeffs

 1   0.069000   2.783168 # Zr3+4
 2   0.060000   3.118146 # O_3
 3   0.105000   3.430851 # C_3
 4   0.044000   2.571134 # H_

Atoms

 1 1 1   3.182580   2.475508   0.000000   0.000000   # Zr3+4
 2 1 1   3.181590  24.420492   0.000000   0.000000   # Zr3+4
 3 1 1   3.182580   0.000000   2.475508   0.000000   # Zr3+4
 4 1 1   3.181590   0.000000  24.420492   0.000000   # Zr3+4
 5 1 1   3.182580   0.000000   0.000000   2.475508   # Zr3+4
 6 1 1   3.181590   0.000000   0.000000  24.420492   # Zr3+4
 7 1 1   3.215050   2.475508  13.448000  13.448000   # Zr3+4
 8 1 1   3.213650  24.420492  13.448000  13.448000   # Zr3+4
 9 1 1   3.198570   0.000000  15.923508  13.448000   # Zr3+4
 10 1 1   3.198420   0.000000  10.972492  13.448000   # Zr3+4
 11 1 1   3.198570   0.000000  13.448000  15.923508   # Zr3+4
 12 1 1   3.198420   0.000000  13.448000  10.972492   # Zr3+4
 13 1 1   3.198570  15.923508   0.000000  13.448000   # Zr3+4
 14 1 1   3.198420  10.972492   0.000000  13.448000   # Zr3+4
 15 1 1   3.215050  13.448000   2.475508  13.448000   # Zr3+4
 16 1 1   3.213650  13.448000  24.420492  13.448000   # Zr3+4
 17 1 1   3.198570  13.448000   0.000000  15.923508   # Zr3+4
 18 1 1   3.198420  13.448000   0.000000  10.972492   # Zr3+4
 19 1 1   3.198570  15.923508  13.448000   0.000000   # Zr3+4
 20 1 1   3.198420  10.972492  13.448000   0.000000   # Zr3+4
 21 1 1   3.198570  13.448000  15.923508   0.000000   # Zr3+4
 22 1 1   3.198420  13.448000  10.972492   0.000000   # Zr3+4
 23 1 1   3.215050  13.448000  13.448000   2.475508   # Zr3+4
 24 1 1   3.213650  13.448000  13.448000  24.420492   # Zr3+4
 25 1 2  -1.346740   1.221078   1.221078   1.221078   # O_3
 26 1 2  -1.116260  25.674922  25.674922   1.221078   # O_3
 27 1 2  -1.116260  25.674922   1.221078  25.674922   # O_3
 28 1 2  -1.116260   1.221078  25.674922  25.674922   # O_3
 29 1 2  -1.229740   1.221078   1.221078  25.674922   # O_3
 30 1 2  -1.006300  25.674922  25.674922  25.674922   # O_3
 31 1 2  -1.229740   1.221078  25.674922   1.221078   # O_3
 32 1 2  -1.229740  25.674922   1.221078   1.221078   # O_3
 33 1 2  -1.279500   1.221078  14.669078  14.669078   # O_3
 34 1 2  -1.162870  25.674922  12.226922  14.669078   # O_3
 35 1 2  -1.162870  25.674922  14.669078  12.226922   # O_3
 36 1 2  -1.280060   1.221078  12.226922  12.226922   # O_3
 37 1 2  -1.279780   1.221078  14.669078  12.226922   # O_3
 38 1 2  -1.162890  25.674922  12.226922  12.226922   # O_3
 39 1 2  -1.279780   1.221078  12.226922  14.669078   # O_3
 40 1 2  -1.162850  25.674922  14.669078  14.669078   # O_3
 41 1 2  -1.279500  14.669078   1.221078  14.669078   # O_3
 42 1 2  -1.162870  12.226922  25.674922  14.669078   # O_3
 43 1 2  -1.280070  12.226922   1.221078  12.226922   # O_3
 44 1 2  -1.162870  14.669078  25.674922  12.226922   # O_3
 45 1 2  -1.279780  14.669078   1.221078  12.226922   # O_3
 46 1 2  -1.162890  12.226922  25.674922  12.226922   # O_3
 47 1 2  -1.162850  14.669078  25.674922  14.669078   # O_3
 48 1 2  -1.279780  12.226922   1.221078  14.669078   # O_3
 49 1 2  -1.279500  14.669078  14.669078   1.221078   # O_3
 50 1 2  -1.280070  12.226922  12.226922   1.221078   # O_3
 51 1 2  -1.162870  12.226922  14.669078  25.674922   # O_3
 52 1 2  -1.162870  14.669078  12.226922  25.674922   # O_3
 53 1 2  -1.162850  14.669078  14.669078  25.674922   # O_3
 54 1 2  -1.162890  12.226922  12.226922  25.674922   # O_3
 55 1 2  -1.279780  14.669078  12.226922   1.221078   # O_3
 56 1 2  -1.279780  12.226922  14.669078   1.221078   # O_3
 57 1 2  -0.693568   3.566410   0.000000   1.933822   # O_3
 58 1 2  -0.682587  23.329590   0.000000   1.933822   # O_3
 59 1 2  -0.592051  23.329590   0.000000  24.962178   # O_3
 60 1 2  -0.601613   3.566410   0.000000  24.962178   # O_3
 61 1 2  -0.693570   1.933822   3.566410   0.000000   # O_3
 62 1 2  -0.682589   1.933822  23.329590   0.000000   # O_3
 63 1 2  -0.592051  24.962178  23.329590   0.000000   # O_3
 64 1 2  -0.601613  24.962178   3.566410   0.000000   # O_3
 65 1 2  -0.693570   0.000000   1.933822   3.566410   # O_3
 66 1 2  -0.682589   0.000000   1.933822  23.329590   # O_3
 67 1 2  -0.592051   0.000000  24.962178  23.329590   # O_3
 68 1 2  -0.601613   0.000000  24.962178   3.566410   # O_3
 69 1 2  -0.601613   0.000000   3.566410  24.962178   # O_3
 70 1 2  -0.592051   0.000000  23.329590  24.962178   # O_3
 71 1 2  -0.682589   0.000000  23.329590   1.933822   # O_3
 72 1 2  -0.693570   0.000000   3.566410   1.933822   # O_3
 73 1 2  -0.693571   3.566410   1.933822   0.000000   # O_3
 74 1 2  -0.682589  23.329590   1.933822   0.000000   # O_3
 75 1 2  -0.592052  23.329590  24.962178   0.000000   # O_3
 76 1 2  -0.601614   3.566410  24.962178   0.000000   # O_3
 77 1 2  -0.682589   1.933822   0.000000  23.329590   # O_3
 78 1 2  -0.693568   1.933822   0.000000   3.566410   # O_3
 79 1 2  -0.601612  24.962178   0.000000   3.566410   # O_3
 80 1 2  -0.592051  24.962178   0.000000  23.329590   # O_3
 81 1 2  -0.627612   3.566410  13.448000  15.381822   # O_3
 82 1 2  -0.617193  23.329590  13.448000  15.381822   # O_3
 83 1 2  -0.617199  23.329590  13.448000  11.514178   # O_3
 84 1 2  -0.627702   3.566410  13.448000  11.514178   # O_3
 85 1 2  -0.636707   1.933822  17.014410  13.448000   # O_3
 86 1 2  -0.639751   1.933822   9.881590  13.448000   # O_3
 87 1 2  -0.547474  24.962178   9.881590  13.448000   # O_3
 88 1 2  -0.544998  24.962178  17.014410  13.448000   # O_3
 89 1 2  -0.680309   0.000000  15.381822  17.014410   # O_3
 90 1 2  -0.683426   0.000000  15.381822   9.881590   # O_3
 91 1 2  -0.683536   0.000000  11.514178   9.881590   # O_3
 92 1 2  -0.680421   0.000000  11.514178  17.014410   # O_3
 93 1 2  -0.680421   0.000000  17.014410  11.514178   # O_3
 94 1 2  -0.683536   0.000000   9.881590  11.514178   # O_3
 95 1 2  -0.683426   0.000000   9.881590  15.381822   # O_3
 96 1 2  -0.680309   0.000000  17.014410  15.381822   # O_3
 97 1 2  -0.627614   3.566410  15.381822  13.448000   # O_3
 98 1 2  -0.617192  23.329590  15.381822  13.448000   # O_3
 99 1 2  -0.617198  23.329590  11.514178  13.448000   # O_3
 100 1 2  -0.627700   3.566410  11.514178  13.448000   # O_3
 101 1 2  -0.639750   1.933822  13.448000   9.881590   # O_3
 102 1 2  -0.636705   1.933822  13.448000  17.014410   # O_3
 103 1 2  -0.544998  24.962178  13.448000  17.014410   # O_3
 104 1 2  -0.547473  24.962178  13.448000   9.881590   # O_3
 105 1 2  -0.680309  17.014410   0.000000  15.381822   # O_3
 106 1 2  -0.683425   9.881590   0.000000  15.381822   # O_3
 107 1 2  -0.683536   9.881590   0.000000  11.514178   # O_3
 108 1 2  -0.680420  17.014410   0.000000  11.514178   # O_3
 109 1 2  -0.627612  15.381822   3.566410  13.448000   # O_3
 110 1 2  -0.617192  15.381822  23.329590  13.448000   # O_3
 111 1 2  -0.617197  11.514178  23.329590  13.448000   # O_3
 112 1 2  -0.627700  11.514178   3.566410  13.448000   # O_3
 113 1 2  -0.636705  13.448000   1.933822  17.014410   # O_3
 114 1 2  -0.639749  13.448000   1.933822   9.881590   # O_3
 115 1 2  -0.547470  13.448000  24.962178   9.881590   # O_3
 116 1 2  -0.544995  13.448000  24.962178  17.014410   # O_3
 117 1 2  -0.627696  13.448000   3.566410  11.514178   # O_3
 118 1 2  -0.617193  13.448000  23.329590  11.514178   # O_3
 119 1 2  -0.617187  13.448000  23.329590  15.381822   # O_3
 120 1 2  -0.627609  13.448000   3.566410  15.381822   # O_3
 121 1 2  -0.636703  17.014410   1.933822  13.448000   # O_3
 122 1 2  -0.639747   9.881590   1.933822  13.448000   # O_3
 123 1 2  -0.547470   9.881590  24.962178  13.448000   # O_3
 124 1 2  -0.544996  17.014410  24.962178  13.448000   # O_3
 125 1 2  -0.683423  15.381822   0.000000   9.881590   # O_3
 126 1 2  -0.680307  15.381822   0.000000  17.014410   # O_3
 127 1 2  -0.680418  11.514178   0.000000  17.014410   # O_3
 128 1 2  -0.683533  11.514178   0.000000   9.881590   # O_3
 129 1 2  -0.636702  17.014410  13.448000   1.933822   # O_3
 130 1 2  -0.639746   9.881590  13.448000   1.933822   # O_3
 131 1 2  -0.547468   9.881590  13.448000  24.962178   # O_3
 132 1 2  -0.544993  17.014410  13.448000  24.962178   # O_3
 133 1 2  -0.680303  15.381822  17.014410   0.000000   # O_3
 134 1 2  -0.683420  15.381822   9.881590   0.000000   # O_3
 135 1 2  -0.683531  11.514178   9.881590   0.000000   # O_3
 136 1 2  -0.680416  11.514178  17.014410   0.000000   # O_3
 137 1 2  -0.627606  13.448000  15.381822   3.566410   # O_3
 138 1 2  -0.617186  13.448000  15.381822  23.329590   # O_3
 139 1 2  -0.617191  13.448000  11.514178  23.329590   # O_3
 140 1 2  -0.627693  13.448000  11.514178   3.566410   # O_3
 141 1 2  -0.544993  13.448000  17.014410  24.962178   # O_3
 142 1 2  -0.547469  13.448000   9.881590  24.962178   # O_3
 143 1 2  -0.639745  13.448000   9.881590   1.933822   # O_3
 144 1 2  -0.636702  13.448000  17.014410   1.933822   # O_3
 145 1 2  -0.680306  17.014410  15.381822   0.000000   # O_3
 146 1 2  -0.683425   9.881590  15.381822   0.000000   # O_3
 147 1 2  -0.683534   9.881590  11.514178   0.000000   # O_3
 148 1 2  -0.680421  17.014410  11.514178   0.000000   # O_3
 149 1 2  -0.617192  15.381822  13.448000  23.329590   # O_3
 150 1 2  -0.627612  15.381822  13.448000   3.566410   # O_3
 151 1 2  -0.627699  11.514178  13.448000   3.566410   # O_3
 152 1 2  -0.617197  11.514178  13.448000  23.329590   # O_3
 153 1 3   0.506293   3.152211   0.000000   3.152211   # C_3
 154 1 3   0.489916  23.743789   0.000000   3.152211   # C_3
 155 1 3   0.474000  23.743789   0.000000  23.743789   # C_3
 156 1 3   0.489920   3.152211   0.000000  23.743789   # C_3
 157 1 3   0.506301   3.152211   3.152211   0.000000   # C_3
 158 1 3   0.489922   3.152211  23.743789   0.000000   # C_3
 159 1 3   0.474004  23.743789  23.743789   0.000000   # C_3
 160 1 3   0.489921  23.743789   3.152211   0.000000   # C_3
 161 1 3   0.506298   0.000000   3.152211   3.152211   # C_3
 162 1 3   0.489921   0.000000   3.152211  23.743789   # C_3
 163 1 3   0.474000   0.000000  23.743789  23.743789   # C_3
 164 1 3   0.489919   0.000000  23.743789   3.152211   # C_3
 165 1 3   0.505426   3.152211  13.448000  16.600211   # C_3
 166 1 3   0.489035  23.743789  13.448000  16.600211   # C_3
 167 1 3   0.485676  23.743789  13.448000  10.295789   # C_3
 168 1 3   0.502130   3.152211  13.448000  10.295789   # C_3
 169 1 3   0.505431   3.152211  16.600211  13.448000   # C_3
 170 1 3   0.502129   3.152211  10.295789  13.448000   # C_3
 171 1 3   0.485673  23.743789  10.295789  13.448000   # C_3
 172 1 3   0.489032  23.743789  16.600211  13.448000   # C_3
 173 1 3   0.501551   0.000000  16.600211  16.600211   # C_3
 174 1 3   0.498351   0.000000  16.600211  10.295789   # C_3
 175 1 3   0.495071   0.000000  10.295789  10.295789   # C_3
 176 1 3   0.498350   0.000000  10.295789  16.600211   # C_3
 177 1 3   0.501550  16.600211   0.000000  16.600211   # C_3
 178 1 3   0.498347  10.295789   0.000000  16.600211   # C_3
 179 1 3   0.495069  10.295789   0.000000  10.295789   # C_3
 180 1 3   0.498347  16.600211   0.000000  10.295789   # C_3
 181 1 3   0.505421  16.600211   3.152211  13.448000   # C_3
 182 1 3   0.489027  16.600211  23.743789  13.448000   # C_3
 183 1 3   0.485664  10.295789  23.743789  13.448000   # C_3
 184 1 3   0.502117  10.295789   3.152211  13.448000   # C_3
 185 1 3   0.505420  13.448000   3.152211  16.600211   # C_3
 186 1 3   0.502119  13.448000   3.152211  10.295789   # C_3
 187 1 3   0.485660  13.448000  23.743789  10.295789   # C_3
 188 1 3   0.489020  13.448000  23.743789  16.600211   # C_3
 189 1 3   0.505416  16.600211  13.448000   3.152211   # C_3
 190 1 3   0.502114  10.295789  13.448000   3.152211   # C_3
 191 1 3   0.485660  10.295789  13.448000  23.743789   # C_3
 192 1 3   0.489021  16.600211  13.448000  23.743789   # C_3
 193 1 3   0.501538  16.600211  16.600211   0.000000   # C_3
 194 1 3   0.498342  16.600211  10.295789   0.000000   # C_3
 195 1 3   0.495060  10.295789  10.295789   0.000000   # C_3
 196 1 3   0.498341  10.295789  16.600211   0.000000   # C_3
 197 1 3   0.505414  13.448000  16.600211   3.152211   # C_3
 198 1 3   0.489016  13.448000  16.600211  23.743789   # C_3
 199 1 3   0.485657  13.448000  10.295789  23.743789   # C_3
 200 1 3   0.502108  13.448000  10.295789   3.152211   # C_3
 201 1 3  -0.220994   4.209224   0.000000   4.209224   # C_3
 202 1 3  -0.175810  22.686776   0.000000   4.209224   # C_3
 203 1 3  -0.131763  22.686776   0.000000  22.686776   # C_3
 204 1 3  -0.175815   4.209224   0.000000  22.686776   # C_3
 205 1 3  -0.221005   4.209224   4.209224   0.000000   # C_3
 206 1 3  -0.175819   4.209224  22.686776   0.000000   # C_3
 207 1 3  -0.131772  22.686776  22.686776   0.000000   # C_3
 208 1 3  -0.175821  22.686776   4.209224   0.000000   # C_3
 209 1 3  -0.221002   0.000000   4.209224   4.209224   # C_3
 210 1 3  -0.175821   0.000000   4.209224  22.686776   # C_3
 211 1 3  -0.131765   0.000000  22.686776  22.686776   # C_3
 212 1 3  -0.175818   0.000000  22.686776   4.209224   # C_3
 213 1 3  -0.189041   4.209224  13.448000  17.657224   # C_3
 214 1 3  -0.143978  22.686776  13.448000  17.657224   # C_3
 215 1 3  -0.138476  22.686776  13.448000   9.238776   # C_3
 216 1 3  -0.183813   4.209224  13.448000   9.238776   # C_3
 217 1 3  -0.189048   4.209224  17.657224  13.448000   # C_3
 218 1 3  -0.183811   4.209224   9.238776  13.448000   # C_3
 219 1 3  -0.138467  22.686776   9.238776  13.448000   # C_3
 220 1 3  -0.143972  22.686776  17.657224  13.448000   # C_3
 221 1 3  -0.218207   0.000000  17.657224  17.657224   # C_3
 222 1 3  -0.213167   0.000000  17.657224   9.238776   # C_3
 223 1 3  -0.207966   0.000000   9.238776   9.238776   # C_3
 224 1 3  -0.213163   0.000000   9.238776  17.657224   # C_3
 225 1 3  -0.218208  17.657224   0.000000  17.657224   # C_3
 226 1 3  -0.213162   9.238776   0.000000  17.657224   # C_3
 227 1 3  -0.207966   9.238776   0.000000   9.238776   # C_3
 228 1 3  -0.213163  17.657224   0.000000   9.238776   # C_3
 229 1 3  -0.189032  17.657224   4.209224  13.448000   # C_3
 230 1 3  -0.143962  17.657224  22.686776  13.448000   # C_3
 231 1 3  -0.138451   9.238776  22.686776  13.448000   # C_3
 232 1 3  -0.183788   9.238776   4.209224  13.448000   # C_3
 233 1 3  -0.189028  13.448000   4.209224  17.657224   # C_3
 234 1 3  -0.183794  13.448000   4.209224   9.238776   # C_3
 235 1 3  -0.138443  13.448000  22.686776   9.238776   # C_3
 236 1 3  -0.143950  13.448000  22.686776  17.657224   # C_3
 237 1 3  -0.189016  17.657224  13.448000   4.209224   # C_3
 238 1 3  -0.183779   9.238776  13.448000   4.209224   # C_3
 239 1 3  -0.138439   9.238776  13.448000  22.686776   # C_3
 240 1 3  -0.143951  17.657224  13.448000  22.686776   # C_3
 241 1 3  -0.218183  17.657224  17.657224   0.000000   # C_3
 242 1 3  -0.213149  17.657224   9.238776   0.000000   # C_3
 243 1 3  -0.207949   9.238776   9.238776   0.000000   # C_3
 244 1 3  -0.213149   9.238776  17.657224   0.000000   # C_3
 245 1 3  -0.189018  13.448000  17.657224   4.209224   # C_3
 246 1 3  -0.143939  13.448000  17.657224  22.686776   # C_3
 247 1 3  -0.138434  13.448000   9.238776  22.686776   # C_3
 248 1 3  -0.183769  13.448000   9.238776   4.209224   # C_3
 249 1 3   0.113117   5.535197   0.000000   3.891851   # C_3
 250 1 3   0.089325  21.360803   0.000000   3.891851   # C_3
 251 1 3   0.066898  21.360803   0.000000  23.004149   # C_3
 252 1 3   0.090029   5.535197   0.000000  23.004149   # C_3
 253 1 3   0.113128   3.891851   5.535197   0.000000   # C_3
 254 1 3   0.089334   3.891851  21.360803   0.000000   # C_3
 255 1 3   0.066910  23.004149  21.360803   0.000000   # C_3
 256 1 3   0.090036  23.004149   5.535197   0.000000   # C_3
 257 1 3   0.113126   0.000000   3.891851   5.535197   # C_3
 258 1 3   0.089341   0.000000   3.891851  21.360803   # C_3
 259 1 3   0.066905   0.000000  23.004149  21.360803   # C_3
 260 1 3   0.090038   0.000000  23.004149   5.535197   # C_3
 261 1 3   0.090041   0.000000   5.535197  23.004149   # C_3
 262 1 3   0.066903   0.000000  21.360803  23.004149   # C_3
 263 1 3   0.089338   0.000000  21.360803   3.891851   # C_3
 264 1 3   0.113131   0.000000   5.535197   3.891851   # C_3
 265 1 3   0.113131   5.535197   3.891851   0.000000   # C_3
 266 1 3   0.089344  21.360803   3.891851   0.000000   # C_3
 267 1 3   0.066913  21.360803  23.004149   0.000000   # C_3
 268 1 3   0.090037   5.535197  23.004149   0.000000   # C_3
 269 1 3   0.089333   3.891851   0.000000  21.360803   # C_3
 270 1 3   0.113120   3.891851   0.000000   5.535197   # C_3
 271 1 3   0.090028  23.004149   0.000000   5.535197   # C_3
 272 1 3   0.066900  23.004149   0.000000  21.360803   # C_3
 273 1 3   0.116365   5.535197  13.448000  17.339851   # C_3
 274 1 3   0.092569  21.360803  13.448000  17.339851   # C_3
 275 1 3   0.080615  21.360803  13.448000   9.556149   # C_3
 276 1 3   0.104465   5.535197  13.448000   9.556149   # C_3
 277 1 3   0.119925   3.891851  18.983197  13.448000   # C_3
 278 1 3   0.104613   3.891851   7.912803  13.448000   # C_3
 279 1 3   0.081440  23.004149   7.912803  13.448000   # C_3
 280 1 3   0.096748  23.004149  18.983197  13.448000   # C_3
 281 1 3   0.126156   0.000000  17.339851  18.983197   # C_3
 282 1 3   0.111209   0.000000  17.339851   7.912803   # C_3
 283 1 3   0.099366   0.000000   9.556149   7.912803   # C_3
 284 1 3   0.114594   0.000000   9.556149  18.983197   # C_3
 285 1 3   0.114598   0.000000  18.983197   9.556149   # C_3
 286 1 3   0.099366   0.000000   7.912803   9.556149   # C_3
 287 1 3   0.111205   0.000000   7.912803  17.339851   # C_3
 288 1 3   0.126155   0.000000  18.983197  17.339851   # C_3
 289 1 3   0.116368   5.535197  17.339851  13.448000   # C_3
 290 1 3   0.092558  21.360803  17.339851  13.448000   # C_3
 291 1 3   0.080600  21.360803   9.556149  13.448000   # C_3
 292 1 3   0.104456   5.535197   9.556149  13.448000   # C_3
 293 1 3   0.104611   3.891851  13.448000   7.912803   # C_3
 294 1 3   0.119911   3.891851  13.448000  18.983197   # C_3
 295 1 3   0.096751  23.004149  13.448000  18.983197   # C_3
 296 1 3   0.081447  23.004149  13.448000   7.912803   # C_3
 297 1 3   0.126156  18.983197   0.000000  17.339851   # C_3
 298 1 3   0.111206   7.912803   0.000000  17.339851   # C_3
 299 1 3   0.099367   7.912803   0.000000   9.556149   # C_3
 300 1 3   0.114596  18.983197   0.000000   9.556149   # C_3
 301 1 3   0.116353  17.339851   5.535197  13.448000   # C_3
 302 1 3   0.092549  17.339851  21.360803  13.448000   # C_3
 303 1 3   0.080584   9.556149  21.360803  13.448000   # C_3
 304 1 3   0.104436   9.556149   5.535197  13.448000   # C_3
 305 1 3   0.119901  13.448000   3.891851  18.983197   # C_3
 306 1 3   0.104595  13.448000   3.891851   7.912803   # C_3
 307 1 3   0.081416  13.448000  23.004149   7.912803   # C_3
 308 1 3   0.096727  13.448000  23.004149  18.983197   # C_3
 309 1 3   0.104447  13.448000   5.535197   9.556149   # C_3
 310 1 3   0.080581  13.448000  21.360803   9.556149   # C_3
 311 1 3   0.092542  13.448000  21.360803  17.339851   # C_3
 312 1 3   0.116352  13.448000   5.535197  17.339851   # C_3
 313 1 3   0.119908  18.983197   3.891851  13.448000   # C_3
 314 1 3   0.104591   7.912803   3.891851  13.448000   # C_3
 315 1 3   0.081426   7.912803  23.004149  13.448000   # C_3
 316 1 3   0.096741  18.983197  23.004149  13.448000   # C_3
 317 1 3   0.111210  17.339851   0.000000   7.912803   # C_3
 318 1 3   0.126160  17.339851   0.000000  18.983197   # C_3
 319 1 3   0.114597   9.556149   0.000000  18.983197   # C_3
 320 1 3   0.099370   9.556149   0.000000   7.912803   # C_3
 321 1 3   0.119889  18.983197  13.448000   3.891851   # C_3
 322 1 3   0.104580   7.912803  13.448000   3.891851   # C_3
 323 1 3   0.081411   7.912803  13.448000  23.004149   # C_3
 324 1 3   0.096727  18.983197  13.448000  23.004149   # C_3
 325 1 3   0.126132  17.339851  18.983197   0.000000   # C_3
 326 1 3   0.111192  17.339851   7.912803   0.000000   # C_3
 327 1 3   0.099352   9.556149   7.912803   0.000000   # C_3
 328 1 3   0.114584   9.556149  18.983197   0.000000   # C_3
 329 1 3   0.116343  13.448000  17.339851   5.535197   # C_3
 330 1 3   0.092526  13.448000  17.339851  21.360803   # C_3
 331 1 3   0.080568  13.448000   9.556149  21.360803   # C_3
 332 1 3   0.104415  13.448000   9.556149   5.535197   # C_3
 333 1 3   0.096711  13.448000  18.983197  23.004149   # C_3
 334 1 3   0.081402  13.448000   7.912803  23.004149   # C_3
 335 1 3   0.104565  13.448000   7.912803   3.891851   # C_3
 336 1 3   0.119891  13.448000  18.983197   3.891851   # C_3
 337 1 3   0.126133  18.983197  17.339851   0.000000   # C_3
 338 1 3   0.111195   7.912803  17.339851   0.000000   # C_3
 339 1 3   0.099351   7.912803   9.556149   0.000000   # C_3
 340 1 3   0.114583  18.983197   9.556149   0.000000   # C_3
 341 1 3   0.092541  17.339851  13.448000  21.360803   # C_3
 342 1 3   0.116339  17.339851  13.448000   5.535197   # C_3
 343 1 3   0.104429   9.556149  13.448000   5.535197   # C_3
 344 1 3   0.080575   9.556149  13.448000  21.360803   # C_3
 345 1 4  -0.020714   5.779950   0.000000   2.996214   # H_
 346 1 4  -0.008322  21.116050   0.000000   2.996214   # H_
 347 1 4   0.046503  21.116050   0.000000  23.899786   # H_
 348 1 4   0.034848   5.779950   0.000000  23.899786   # H_
 349 1 4  -0.020717   2.996214   5.779950   0.000000   # H_
 350 1 4  -0.008325   2.996214  21.116050   0.000000   # H_
 351 1 4   0.046498  23.899786  21.116050   0.000000   # H_
 352 1 4   0.034846  23.899786   5.779950   0.000000   # H_
 353 1 4  -0.020717   0.000000   2.996214   5.779950   # H_
 354 1 4  -0.008329   0.000000   2.996214  21.116050   # H_
 355 1 4   0.046498   0.000000  23.899786  21.116050   # H_
 356 1 4   0.034844   0.000000  23.899786   5.779950   # H_
 357 1 4   0.034843   0.000000   5.779950  23.899786   # H_
 358 1 4   0.046500   0.000000  21.116050  23.899786   # H_
 359 1 4  -0.008328   0.000000  21.116050   2.996214   # H_
 360 1 4  -0.020720   0.000000   5.779950   2.996214   # H_
 361 1 4  -0.020720   5.779950   2.996214   0.000000   # H_
 362 1 4  -0.008330  21.116050   2.996214   0.000000   # H_
 363 1 4   0.046496  21.116050  23.899786   0.000000   # H_
 364 1 4   0.034844   5.779950  23.899786   0.000000   # H_
 365 1 4  -0.008326   2.996214   0.000000  21.116050   # H_
 366 1 4  -0.020716   2.996214   0.000000   5.779950   # H_
 367 1 4   0.034847  23.899786   0.000000   5.779950   # H_
 368 1 4   0.046501  23.899786   0.000000  21.116050   # H_
 369 1 4   0.011194   5.779950  13.448000  16.444214   # H_
 370 1 4   0.023509  21.116050  13.448000  16.444214   # H_
 371 1 4   0.026324  21.116050  13.448000  10.451786   # H_
 372 1 4   0.013945   5.779950  13.448000  10.451786   # H_
 373 1 4   0.009752   2.996214  19.227950  13.448000   # H_
 374 1 4   0.004015   2.996214   7.668050  13.448000   # H_
 375 1 4   0.059816  23.899786   7.668050  13.448000   # H_
 376 1 4   0.065049  23.899786  19.227950  13.448000   # H_
 377 1 4  -0.008109   0.000000  16.444214  19.227950   # H_
 378 1 4  -0.013916   0.000000  16.444214   7.668050   # H_
 379 1 4  -0.011171   0.000000  10.451786   7.668050   # H_
 380 1 4  -0.005416   0.000000  10.451786  19.227950   # H_
 381 1 4  -0.005417   0.000000  19.227950  10.451786   # H_
 382 1 4  -0.011170   0.000000   7.668050  10.451786   # H_
 383 1 4  -0.013914   0.000000   7.668050  16.444214   # H_
 384 1 4  -0.008108   0.000000  19.227950  16.444214   # H_
 385 1 4   0.011193   5.779950  16.444214  13.448000   # H_
 386 1 4   0.023513  21.116050  16.444214  13.448000   # H_
 387 1 4   0.026329  21.116050  10.451786  13.448000   # H_
 388 1 4   0.013949   5.779950  10.451786  13.448000   # H_
 389 1 4   0.004016   2.996214  13.448000   7.668050   # H_
 390 1 4   0.009758   2.996214  13.448000  19.227950   # H_
 391 1 4   0.065049  23.899786  13.448000  19.227950   # H_
 392 1 4   0.059814  23.899786  13.448000   7.668050   # H_
 393 1 4  -0.008109  19.227950   0.000000  16.444214   # H_
 394 1 4  -0.013916   7.668050   0.000000  16.444214   # H_
 395 1 4  -0.011172   7.668050   0.000000  10.451786   # H_
 396 1 4  -0.005417  19.227950   0.000000  10.451786   # H_
 397 1 4   0.011198  16.444214   5.779950  13.448000   # H_
 398 1 4   0.023516  16.444214  21.116050  13.448000   # H_
 399 1 4   0.026334  10.451786  21.116050  13.448000   # H_
 400 1 4   0.013956  10.451786   5.779950  13.448000   # H_
 401 1 4   0.009761  13.448000   2.996214  19.227950   # H_
 402 1 4   0.004021  13.448000   2.996214   7.668050   # H_
 403 1 4   0.059824  13.448000  23.899786   7.668050   # H_
 404 1 4   0.065056  13.448000  23.899786  19.227950   # H_
 405 1 4   0.013951  13.448000   5.779950  10.451786   # H_
 406 1 4   0.026335  13.448000  21.116050  10.451786   # H_
 407 1 4   0.023518  13.448000  21.116050  16.444214   # H_
 408 1 4   0.011198  13.448000   5.779950  16.444214   # H_
 409 1 4   0.009758  19.227950   2.996214  13.448000   # H_
 410 1 4   0.004022   7.668050   2.996214  13.448000   # H_
 411 1 4   0.059820   7.668050  23.899786  13.448000   # H_
 412 1 4   0.065051  19.227950  23.899786  13.448000   # H_
 413 1 4  -0.013917  16.444214   0.000000   7.668050   # H_
 414 1 4  -0.008111  16.444214   0.000000  19.227950   # H_
 415 1 4  -0.005417  10.451786   0.000000  19.227950   # H_
 416 1 4  -0.011173  10.451786   0.000000   7.668050   # H_
 417 1 4   0.009764  19.227950  13.448000   2.996214   # H_
 418 1 4   0.004026   7.668050  13.448000   2.996214   # H_
 419 1 4   0.059826   7.668050  13.448000  23.899786   # H_
 420 1 4   0.065056  19.227950  13.448000  23.899786   # H_
 421 1 4  -0.008101  16.444214  19.227950   0.000000   # H_
 422 1 4  -0.013910  16.444214   7.668050   0.000000   # H_
 423 1 4  -0.011166  10.451786   7.668050   0.000000   # H_
 424 1 4  -0.005413  10.451786  19.227950   0.000000   # H_
 425 1 4   0.011200  13.448000  16.444214   5.779950   # H_
 426 1 4   0.023523  13.448000  16.444214  21.116050   # H_
 427 1 4   0.026339  13.448000  10.451786  21.116050   # H_
 428 1 4   0.013963  13.448000  10.451786   5.779950   # H_
 429 1 4   0.065062  13.448000  19.227950  23.899786   # H_
 430 1 4   0.059829  13.448000   7.668050  23.899786   # H_
 431 1 4   0.004032  13.448000   7.668050   2.996214   # H_
 432 1 4   0.009764  13.448000  19.227950   2.996214   # H_
 433 1 4  -0.008101  19.227950  16.444214   0.000000   # H_
 434 1 4  -0.013911   7.668050  16.444214   0.000000   # H_
 435 1 4  -0.011165   7.668050  10.451786   0.000000   # H_
 436 1 4  -0.005411  19.227950  10.451786   0.000000   # H_
 437 1 4   0.023519  16.444214  13.448000  21.116050   # H_
 438 1 4   0.011203  16.444214  13.448000   5.779950   # H_
 439 1 4   0.013959  10.451786  13.448000   5.779950   # H_
 440 1 4   0.026338  10.451786  13.448000  21.116050   # H_
 441 1 3  -0.169820   6.508832   0.000000   4.827832   # C_3
 442 1 3  -0.141291  20.387168   0.000000   4.827832   # C_3
 443 1 3  -0.104216  20.387168   0.000000  22.068168   # C_3
 444 1 3  -0.131925   6.508832   0.000000  22.068168   # C_3
 445 1 3  -0.169830   4.827832   6.508832   0.000000   # C_3
 446 1 3  -0.141300   4.827832  20.387168   0.000000   # C_3
 447 1 3  -0.104231  22.068168  20.387168   0.000000   # C_3
 448 1 3  -0.131933  22.068168   6.508832   0.000000   # C_3
 449 1 3  -0.169829   0.000000   4.827832   6.508832   # C_3
 450 1 3  -0.141306   0.000000   4.827832  20.387168   # C_3
 451 1 3  -0.104224   0.000000  22.068168  20.387168   # C_3
 452 1 3  -0.131932   0.000000  22.068168   6.508832   # C_3
 453 1 3  -0.131937   0.000000   6.508832  22.068168   # C_3
 454 1 3  -0.104221   0.000000  20.387168  22.068168   # C_3
 455 1 3  -0.141301   0.000000  20.387168   4.827832   # C_3
 456 1 3  -0.169831   0.000000   6.508832   4.827832   # C_3
 457 1 3  -0.169832   6.508832   4.827832   0.000000   # C_3
 458 1 3  -0.141309  20.387168   4.827832   0.000000   # C_3
 459 1 3  -0.104233  20.387168  22.068168   0.000000   # C_3
 460 1 3  -0.131934   6.508832  22.068168   0.000000   # C_3
 461 1 3  -0.141297   4.827832   0.000000  20.387168   # C_3
 462 1 3  -0.169821   4.827832   0.000000   6.508832   # C_3
 463 1 3  -0.131923  22.068168   0.000000   6.508832   # C_3
 464 1 3  -0.104216  22.068168   0.000000  20.387168   # C_3
 465 1 3  -0.153710   6.508832  13.448000  18.275832   # C_3
 466 1 3  -0.125213  20.387168  13.448000  18.275832   # C_3
 467 1 3  -0.115269  20.387168  13.448000   8.620168   # C_3
 468 1 3  -0.143894   6.508832  13.448000   8.620168   # C_3
 469 1 3  -0.154832   4.827832  19.956832  13.448000   # C_3
 470 1 3  -0.145294   4.827832   6.939168  13.448000   # C_3
 471 1 3  -0.107233  22.068168   6.939168  13.448000   # C_3
 472 1 3  -0.116972  22.068168  19.956832  13.448000   # C_3
 473 1 3  -0.176049   0.000000  18.275832  19.956832   # C_3
 474 1 3  -0.166802   0.000000  18.275832   6.939168   # C_3
 475 1 3  -0.157015   0.000000   8.620168   6.939168   # C_3
 476 1 3  -0.166509   0.000000   8.620168  19.956832   # C_3
 477 1 3  -0.166514   0.000000  19.956832   8.620168   # C_3
 478 1 3  -0.157016   0.000000   6.939168   8.620168   # C_3
 479 1 3  -0.166799   0.000000   6.939168  18.275832   # C_3
 480 1 3  -0.176048   0.000000  19.956832  18.275832   # C_3
 481 1 3  -0.153712   6.508832  18.275832  13.448000   # C_3
 482 1 3  -0.125203  20.387168  18.275832  13.448000   # C_3
 483 1 3  -0.115256  20.387168   8.620168  13.448000   # C_3
 484 1 3  -0.143888   6.508832   8.620168  13.448000   # C_3
 485 1 3  -0.145298   4.827832  13.448000   6.939168   # C_3
 486 1 3  -0.154825   4.827832  13.448000  19.956832   # C_3
 487 1 3  -0.116981  22.068168  13.448000  19.956832   # C_3