 (written by mofun)

1544 atoms
0 bonds
0 angles
0 dihedrals
0 impropers

5 atom types
   0.000000  26.896000 xlo xhi
   0.000000  26.896000 ylo yhi
   0.000000  26.896000 zlo zhi

Masses

 1 91.2240   # Zr3+4
 2 15.9994   # O_3
 3 12.0107   # C_3
 4 1.0079   # H_
 5 14.0067   # N_3

Pair Coeffs

 1   0.069000   2.783168 # Zr3+4
 2   0.060000   3.118146 # O_3
 3   0.105000   3.430851 # C_3
 4   0.044000   2.571134 # H_
 5   0.069000   3.260689 # N_3

Atoms

 1 1 1   3.190030   2.475508   0.000000   0.000000   # Zr3+4
 2 1 1   3.189550  24.420492   0.000000   0.000000   # Zr3+4
 3 1 1   3.191110   0.000000   2.475508   0.000000   # Zr3+4
 4 1 1   3.190530   0.000000  24.420492   0.000000   # Zr3+4
 5 1 1   3.191580   0.000000   0.000000   2.475508   # Zr3+4
 6 1 1   3.190960   0.000000   0.000000  24.420492   # Zr3+4
 7 1 1   3.214740   2.475508  13.448000  13.448000   # Zr3+4
 8 1 1   3.213770  24.420492  13.448000  13.448000   # Zr3+4
 9 1 1   3.203530   0.000000  15.923508  13.448000   # Zr3+4
 10 1 1   3.203500   0.000000  10.972492  13.448000   # Zr3+4
 11 1 1   3.203560   0.000000  13.448000  15.923508   # Zr3+4
 12 1 1   3.203520   0.000000  13.448000  10.972492   # Zr3+4
 13 1 1   3.202390  15.923508   0.000000  13.448000   # Zr3+4
 14 1 1   3.202350  10.972492   0.000000  13.448000   # Zr3+4
 15 1 1   3.214760  13.448000   2.475508  13.448000   # Zr3+4
 16 1 1   3.213710  13.448000  24.420492  13.448000   # Zr3+4
 17 1 1   3.202450  13.448000   0.000000  15.923508   # Zr3+4
 18 1 1   3.202420  13.448000   0.000000  10.972492   # Zr3+4
 19 1 1   3.201910  15.923508  13.448000   0.000000   # Zr3+4
 20 1 1   3.201880  10.972492  13.448000   0.000000   # Zr3+4
 21 1 1   3.201880  13.448000  15.923508   0.000000   # Zr3+4
 22 1 1   3.201850  13.448000  10.972492   0.000000   # Zr3+4
 23 1 1   3.214760  13.448000  13.448000   2.475508   # Zr3+4
 24 1 1   3.213680  13.448000  13.448000  24.420492   # Zr3+4
 25 1 2  -1.320150   1.221078   1.221078   1.221078   # O_3
 26 1 2  -1.158550  25.674922  25.674922   1.221078   # O_3
 27 1 2  -1.154970  25.674922   1.221078  25.674922   # O_3
 28 1 2  -1.147790   1.221078  25.674922  25.674922   # O_3
 29 1 2  -1.228810   1.221078   1.221078  25.674922   # O_3
 30 1 2  -1.073220  25.674922  25.674922  25.674922   # O_3
 31 1 2  -1.232380   1.221078  25.674922   1.221078   # O_3
 32 1 2  -1.239640  25.674922   1.221078   1.221078   # O_3
 33 1 2  -1.269740   1.221078  14.669078  14.669078   # O_3
 34 1 2  -1.191820  25.674922  12.226922  14.669078   # O_3
 35 1 2  -1.191810  25.674922  14.669078  12.226922   # O_3
 36 1 2  -1.269670   1.221078  12.226922  12.226922   # O_3
 37 1 2  -1.268850   1.221078  14.669078  12.226922   # O_3
 38 1 2  -1.189980  25.674922  12.226922  12.226922   # O_3
 39 1 2  -1.268840   1.221078  12.226922  14.669078   # O_3
 40 1 2  -1.190530  25.674922  14.669078  14.669078   # O_3
 41 1 2  -1.271560  14.669078   1.221078  14.669078   # O_3
 42 1 2  -1.185660  12.226922  25.674922  14.669078   # O_3
 43 1 2  -1.271490  12.226922   1.221078  12.226922   # O_3
 44 1 2  -1.185650  14.669078  25.674922  12.226922   # O_3
 45 1 2  -1.271260  14.669078   1.221078  12.226922   # O_3
 46 1 2  -1.185520  12.226922  25.674922  12.226922   # O_3
 47 1 2  -1.186060  14.669078  25.674922  14.669078   # O_3
 48 1 2  -1.271270  12.226922   1.221078  14.669078   # O_3
 49 1 2  -1.272450  14.669078  14.669078   1.221078   # O_3
 50 1 2  -1.272370  12.226922  12.226922   1.221078   # O_3
 51 1 2  -1.182720  12.226922  14.669078  25.674922   # O_3
 52 1 2  -1.182720  14.669078  12.226922  25.674922   # O_3
 53 1 2  -1.184260  14.669078  14.669078  25.674922   # O_3
 54 1 2  -1.183720  12.226922  12.226922  25.674922   # O_3
 55 1 2  -1.272580  14.669078  12.226922   1.221078   # O_3
 56 1 2  -1.272590  12.226922  14.669078   1.221078   # O_3
 57 1 2  -0.677957   3.566410   0.000000   1.933822   # O_3
 58 1 3   0.482519   3.152211   0.000000   3.152211   # C_3
 59 1 2  -0.677371   1.933822   0.000000   3.566410   # O_3
 60 1 3  -0.157074   4.209224   0.000000   4.209224   # C_3
 61 1 3   0.054354   5.535197   0.000000   3.891851   # C_3
 62 1 3  -0.006871   3.891851   0.000000   5.535197   # C_3
 63 1 3  -0.128200   6.508832   0.000000   4.827832   # C_3
 64 1 4  -0.006303   5.779950   0.000000   2.996214   # H_
 65 1 3   0.002939   4.827832   0.000000   6.508832   # C_3
 66 1 4   0.018525   2.996214   0.000000   5.779950   # H_
 67 1 3   0.004279   6.204907   0.000000   6.204907   # C_3
 68 1 3   0.009785   7.243093   0.000000   7.243093   # C_3
 69 1 4   0.052894   7.399090   0.000000   4.558872   # H_
 70 1 3  -0.008949   8.620168   0.000000   6.939168   # C_3
 71 1 5  -0.219137   4.319767   0.389454   7.863852   # N_3
 72 1 3  -0.136815   6.939168   0.000000   8.620168   # C_3
 73 1 3  -0.001419   9.556149   0.000000   7.912803   # C_3
 74 1 5  -0.201685   9.171267   0.032275   5.498618   # N_3
 75 1 3   0.055459   7.912803   0.000000   9.556149   # C_3
 76 1 4   0.054448   6.048910   0.000000   8.889128   # H_
 77 1 3  -0.162907   9.238776   0.000000   9.238776   # C_3
 78 1 3   0.477643  10.295789   0.000000  10.295789   # C_3
 79 1 4   0.016515  10.451786   0.000000   7.668050   # H_
 80 1 4  -0.014271   7.668050   0.000000  10.451786   # H_
 81 1 2  -0.672426  11.514178   0.000000   9.881590   # O_3
 82 1 2  -0.674754   9.881590   0.000000  11.514178   # O_3
 83 1 3   0.101838  11.601052  26.655281   3.414178   # C_3
 84 1 3   0.125055   9.483530  25.569489   4.960698   # C_3
 85 1 3  -0.090503   4.435957   2.524459   9.147061   # C_3
 86 1 3   0.049587   3.752261   1.760881   8.010705   # C_3
 87 1 3  -0.092650  10.917355  25.157443   5.369248   # C_3
 88 1 3  -0.092074  12.013905  26.037749   4.746606   # C_3
 89 1 3  -0.081508   9.287996  25.467553   3.366303   # C_3
 90 1 3  -0.095217  10.478951  26.027797   2.568568   # C_3
 91 1 4   0.029795  10.878625  25.289233   1.856362   # H_
 92 1 4   0.070869  10.064483  26.857001   1.972822   # H_
 93 1 4   0.078647   8.360084  25.938771   2.962594   # H_
 94 1 4   0.039656   9.222638  24.383645   3.117246   # H_
 95 1 3  -0.067985   5.292057   4.279423   7.522542   # C_3
 96 1 3  -0.044102   4.741496   3.506700   6.328360   # C_3
 97 1 4   0.033455   6.202487   4.825411   7.201942   # H_
 98 1 3  -0.050512   5.670484   3.328111   8.686870   # C_3
 99 1 3  -0.095280   3.512080   2.735323   6.787206   # C_3
 100 1 4   0.032511   6.005070   3.977380   9.530867   # H_
 101 1 4   0.045566   6.509101   2.663242   8.386980   # H_
 102 1 4  -0.079303  11.382387   0.846148   3.584968   # H_
 103 1 4   0.167043   3.608367  26.572710   8.156212   # H_
 104 1 4   0.056830   9.891542   0.789667   5.373552   # H_
 105 1 4   0.022540  12.453117  26.588041   2.693365   # H_
 106 1 4   0.044242   5.511528   2.820315   5.920885   # H_
 107 1 4   0.033626   4.437302   4.222403   5.526590   # H_
 108 1 4   0.052554   3.020152   2.252540   5.929492   # H_
 109 1 4   0.044590  11.019291  24.155298   4.987594   # H_
 110 1 4   0.080952  11.056946  25.087513   6.452888   # H_
 111 1 4   0.057991  12.934824  25.422906   4.668339   # H_
 112 1 4   0.034314   3.705731   3.242582   9.565562   # H_
 113 1 4   0.022393   4.735848   1.810908   9.956630   # H_
 114 1 4  -0.020300   2.735054   1.589016   8.411455   # H_
 115 1 4   0.032764   8.843405  24.803222   5.446440   # H_
 116 1 4   0.105117  12.178509  26.883628   5.435951   # H_
 117 1 4   0.037650   4.531438   5.013683   7.874342   # H_
 118 1 4   0.043116   2.785350   3.498363   7.166708   # H_
 119 1 2  -0.674230  23.329590   0.000000   1.933822   # O_3
 120 1 3   0.478775  23.743789   0.000000   3.152211   # C_3
 121 1 2  -0.621945  24.962178   0.000000   3.566410   # O_3
 122 1 3  -0.163668  22.686776   0.000000   4.209224   # C_3
 123 1 3   0.064171  21.360803   0.000000   3.891851   # C_3
 124 1 3   0.021045  23.004149   0.000000   5.535197   # C_3
 125 1 3  -0.138645  20.387168   0.000000   4.827832   # C_3
 126 1 4  -0.005461  21.116050   0.000000   2.996214   # H_
 127 1 3  -0.062355  22.068168   0.000000   6.508832   # C_3
 128 1 4   0.026405  23.899786   0.000000   5.779950   # H_
 129 1 3   0.013377  20.691093   0.000000   6.204907   # C_3
 130 1 3   0.019124  19.652907   0.000000   7.243093   # C_3
 131 1 4   0.057106  19.496910   0.000000   4.558872   # H_
 132 1 3  -0.074410  18.275832   0.000000   6.939168   # C_3
 133 1 5  -0.028293  22.576233  26.506546   7.863852   # N_3
 134 1 3  -0.143240  19.956832   0.000000   8.620168   # C_3
 135 1 3   0.033990  17.339851   0.000000   7.912803   # C_3
 136 1 5  -0.038486  17.724733  26.863725   5.498618   # N_3
 137 1 3   0.066120  18.983197   0.000000   9.556149   # C_3
 138 1 4   0.054114  20.847090   0.000000   8.889128   # H_
 139 1 3  -0.175783  17.657224   0.000000   9.238776   # C_3
 140 1 3   0.483310  16.600211   0.000000  10.295789   # C_3
 141 1 4   0.010051  16.444214   0.000000   7.668050   # H_
 142 1 4  -0.002036  19.227950   0.000000  10.451786   # H_
 143 1 2  -0.671594  15.381822   0.000000   9.881590   # O_3
 144 1 2  -0.672742  17.014410   0.000000  11.514178   # O_3
 145 1 3  -0.231686  15.294948   0.240450   3.414178   # C_3
 146 1 3  -0.021704  17.412470   1.326511   4.960698   # C_3
 147 1 3  -0.088768  22.460043  24.371272   9.147061   # C_3
 148 1 3   0.060934  23.143470  25.135119   8.010705   # C_3
 149 1 3  -0.112395  15.978645   1.738557   5.369248   # C_3
 150 1 3  -0.000743  14.882095   0.858251   4.746606   # C_3
 151 1 3  -0.105628  17.608004   1.428447   3.366303   # C_3
 152 1 3  -0.000515  16.417049   0.868203   2.568568   # C_3
 153 1 4  -0.012115  16.017375   1.606767   1.856362   # H_
 154 1 4  -0.045301  16.831517   0.038999   1.972822   # H_
 155 1 4   0.023242  18.535916   0.957229   2.962594   # H_
 156 1 4   0.040963  17.673362   2.512355   3.117246   # H_
 157 1 3  -0.065449  21.603943  22.616577   7.522542   # C_3
 158 1 3  -0.044528  22.154504  23.389300   6.328360   # C_3
 159 1 4   0.036018  20.693513  22.070589   7.201942   # H_
 160 1 3  -0.050169  21.225516  23.567889   8.686870   # C_3
 161 1 3  -0.088717  23.383920  24.160677   6.787206   # C_3
 162 1 4   0.040650  20.890930  22.918620   9.530867   # H_
 163 1 4   0.073588  20.386899  24.233027   8.386980   # H_
 164 1 4   0.139371  15.513613  26.049852   3.584968   # H_
 165 1 4  -0.001951  23.287633   0.323290   8.156212   # H_
 166 1 4   0.107535  17.004727  26.106333   5.373552   # H_
 167 1 4   0.015225  14.442883   0.307959   2.693365   # H_
 168 1 4   0.068975  21.384472  24.075685   5.920885   # H_
 169 1 4   0.045803  22.458698  22.673597   5.526590   # H_
 170 1 4   0.104069  23.875848  24.643460   5.929492   # H_
 171 1 4   0.052177  15.876709   2.740702   4.987594   # H_
 172 1 4   0.050345  15.839054   1.808487   6.452888   # H_
 173 1 4   0.000179  13.961176   1.473094   4.668339   # H_
 174 1 4   0.048590  23.190269  23.653418   9.565562   # H_
 175 1 4   0.073417  22.160421  25.085092   9.956630   # H_
 176 1 4   0.048239  24.160677  25.306984   8.411455   # H_
 177 1 4   0.036852  18.052595   2.092778   5.446440   # H_
 178 1 4  -0.028291  14.717491   0.012372   5.435951   # H_
 179 1 4   0.043180  22.364562  21.882317   7.874342   # H_
 180 1 4   0.069624  24.110650  23.397637   7.166708   # H_
 181 1 2  -0.605334  23.329590   0.000000  24.962178   # O_3
 182 1 3   0.456455  23.743789   0.000000  23.743789   # C_3
 183 1 2  -0.612173  24.962178   0.000000  23.329590   # O_3
 184 1 3  -0.104030  22.686776   0.000000  22.686776   # C_3
 185 1 3   0.016313  21.360803   0.000000  23.004149   # C_3
 186 1 3  -0.041091  23.004149   0.000000  21.360803   # C_3
 187 1 3  -0.091834  20.387168   0.000000  22.068168   # C_3
 188 1 4   0.031751  21.116050   0.000000  23.899786   # H_
 189 1 3   0.028684  22.068168   0.000000  20.387168   # C_3
 190 1 4   0.051966  23.899786   0.000000  21.116050   # H_
 191 1 3  -0.014373  20.691093   0.000000  20.691093   # C_3
 192 1 3   0.020114  19.652907   0.000000  19.652907   # C_3
 193 1 4   0.044354  19.496910   0.000000  22.337128   # H_
 194 1 3  -0.012876  18.275832   0.000000  19.956832   # C_3
 195 1 5  -0.221001  22.576233   0.389454  19.032148   # N_3
 196 1 3  -0.144049  19.956832   0.000000  18.275832   # C_3
 197 1 3   0.002286  17.339851   0.000000  18.983197   # C_3
 198 1 5  -0.199422  17.724733   0.032275  21.397382   # N_3
 199 1 3   0.060914  18.983197   0.000000  17.339851   # C_3
 200 1 4   0.058316  20.847090   0.000000  18.006872   # H_
 201 1 3  -0.166340  17.657224   0.000000  17.657224   # C_3
 202 1 3   0.478714  16.600211   0.000000  16.600211   # C_3
 203 1 4   0.015497  16.444214   0.000000  19.227950   # H_
 204 1 4  -0.015774  19.227950   0.000000  16.444214   # H_
 205 1 2  -0.672638  15.381822   0.000000  17.014410   # O_3
 206 1 2  -0.674922  17.014410   0.000000  15.381822   # O_3
 207 1 3   0.098286  15.294948  26.655281  23.481822   # C_3
 208 1 3   0.122866  17.412470  25.569489  21.935302   # C_3
 209 1 3  -0.093048  22.460043   2.524459  17.749208   # C_3
 210 1 3   0.053107  23.143470   1.760881  18.885295   # C_3
 211 1 3  -0.093117  15.978645  25.157443  21.526752   # C_3
 212 1 3  -0.091080  14.882095  26.037749  22.149394   # C_3
 213 1 3  -0.079348  17.608004  25.467553  23.529697   # C_3
 214 1 3  -0.100624  16.417049  26.027797  24.327432   # C_3
 215 1 4   0.067559  16.017375  25.289233  25.039638   # H_
 216 1 4   0.107758  16.831517  26.857001  24.923178   # H_
 217 1 4   0.096012  18.535916  25.938771  23.933406   # H_
 218 1 4   0.052689  17.673362  24.383645  23.778485   # H_
 219 1 3  -0.070306  21.603943   4.279423  19.373458   # C_3
 220 1 3  -0.040675  22.154504   3.506700  20.567640   # C_3
 221 1 4   0.034708  20.693513   4.825411  19.694058   # H_
 222 1 3  -0.048642  21.225516   3.328111  18.209130   # C_3
 223 1 3  -0.100443  23.383920   2.735323  20.108794   # C_3
 224 1 4   0.032875  20.890930   3.977380  17.365133   # H_
 225 1 4   0.044627  20.386899   2.663242  18.509020   # H_
 226 1 4  -0.070488  15.513613   0.846148  23.311032   # H_
 227 1 4   0.177339  23.287633  26.572710  18.739788   # H_
 228 1 4   0.057242  17.004727   0.789667  21.522448   # H_
 229 1 4   0.043523  14.442883  26.588041  24.202635   # H_
 230 1 4   0.045133  21.384472   2.820315  20.975115   # H_
 231 1 4   0.045289  22.458698   4.222403  21.369410   # H_
 232 1 4   0.075170  23.875848   2.252540  20.966508   # H_
 233 1 4   0.045369  15.876709  24.155298  21.908406   # H_
 234 1 4   0.080643  15.839054  25.087513  20.443112   # H_
 235 1 4   0.058478  13.961176  25.422906  22.227661   # H_
 236 1 4   0.043422  23.190269   3.242582  17.330438   # H_
 237 1 4   0.025829  22.160421   1.810908  16.939370   # H_
 238 1 4   0.000782  24.160677   1.589016  18.484545   # H_
 239 1 4   0.036143  18.052595  24.803222  21.449560   # H_
 240 1 4   0.103330  14.717491  26.883628  21.459780   # H_
 241 1 4   0.044635  22.364562   5.013683  19.021658   # H_
 242 1 4   0.069429  24.110650   3.498363  19.729292   # H_
 243 1 2  -0.613294   3.566410   0.000000  24.962178   # O_3
 244 1 3   0.477739   3.152211   0.000000  23.743789   # C_3
 245 1 2  -0.674361   1.933822   0.000000  23.329590   # O_3
 246 1 3  -0.161249   4.209224   0.000000  22.686776   # C_3
 247 1 3   0.058588   5.535197   0.000000  23.004149   # C_3
 248 1 3   0.026119   3.891851   0.000000  21.360803   # C_3
 249 1 3  -0.131318   6.508832   0.000000  22.068168   # C_3
 250 1 4   0.019499   5.779950   0.000000  23.899786   # H_
 251 1 3  -0.068657   4.827832   0.000000  20.387168   # C_3
 252 1 4   0.004561   2.996214   0.000000  21.116050   # H_
 253 1 3   0.013439   6.204907   0.000000  20.691093   # C_3
 254 1 3   0.018447   7.243093   0.000000  19.652907   # C_3
 255 1 4   0.057733   7.399090   0.000000  22.337128   # H_
 256 1 3  -0.073510   8.620168   0.000000  19.956832   # C_3
 257 1 5  -0.026184   4.319767  26.506546  19.032148   # N_3
 258 1 3  -0.142422   6.939168   0.000000  18.275832   # C_3
 259 1 3   0.033228   9.556149   0.000000  18.983197   # C_3
 260 1 5  -0.039123   9.171267  26.863725  21.397382   # N_3
 261 1 3   0.065256   7.912803   0.000000  17.339851   # C_3
 262 1 4   0.052851   6.048910   0.000000  18.006872   # H_
 263 1 3  -0.175268   9.238776   0.000000  17.657224   # C_3
 264 1 3   0.483086  10.295789   0.000000  16.600211   # C_3
 265 1 4   0.010347  10.451786   0.000000  19.227950   # H_
 266 1 4  -0.001893   7.668050   0.000000  16.444214   # H_
 267 1 2  -0.671528  11.514178   0.000000  17.014410   # O_3
 268 1 2  -0.672803   9.881590   0.000000  15.381822   # O_3
 269 1 3  -0.228086  11.601052   0.240450  23.481822   # C_3
 270 1 3  -0.021401   9.483530   1.326511  21.935302   # C_3
 271 1 3  -0.086205   4.435957  24.371272  17.749208   # C_3
 272 1 3   0.056999   3.752261  25.135119  18.885295   # C_3
 273 1 3  -0.112242  10.917355   1.738557  21.526752   # C_3
 274 1 3  -0.001707  12.013905   0.858251  22.149394   # C_3
 275 1 3  -0.102927   9.287996   1.428447  23.529697   # C_3
 276 1 3  -0.007897  10.478951   0.868203  24.327432   # C_3
 277 1 4   0.027137  10.878625   1.606767  25.039638   # H_
 278 1 4  -0.005267  10.064483   0.038999  24.923178   # H_
 279 1 4   0.041669   8.360084   0.957229  23.933406   # H_
 280 1 4   0.053210   9.222638   2.512355  23.778485   # H_
 281 1 3  -0.062512   5.292057  22.616577  19.373458   # C_3
 282 1 3  -0.049627   4.741496  23.389300  20.567640   # C_3
 283 1 4   0.035266   6.202487  22.070589  19.694058   # H_
 284 1 3  -0.052612   5.670484  23.567889  18.209130   # C_3
 285 1 3  -0.082854   3.512080  24.160677  20.108794   # C_3
 286 1 4   0.040104   6.005070  22.918620  17.365133   # H_
 287 1 4   0.074287   6.509101  24.233027  18.509020   # H_
 288 1 4   0.143608  11.382387  26.049852  23.311032   # H_
 289 1 4  -0.015907   3.608367   0.323290  18.739788   # H_
 290 1 4   0.107417   9.891542  26.106333  21.522448   # H_
 291 1 4   0.036600  12.453117   0.307959  24.202635   # H_
 292 1 4   0.071161   5.511528  24.075685  20.975115   # H_
 293 1 4   0.043849   4.437302  22.673597  21.369410   # H_
 294 1 4   0.084907   3.020152  24.643460  20.966508   # H_
 295 1 4   0.052475  11.019291   2.740702  21.908406   # H_
 296 1 4   0.050264  11.056946   1.808487  20.443112   # H_
 297 1 4   0.001772  12.934824   1.473094  22.227661   # H_
 298 1 4   0.039444   3.705731  23.653418  17.330438   # H_
 299 1 4   0.070436   4.735848  25.085092  16.939370   # H_
 300 1 4   0.027886   2.735054  25.306984  18.484545   # H_
 301 1 4   0.038306   8.843405   2.092778  21.449560   # H_
 302 1 4  -0.027614  12.178509   0.012372  21.459780   # H_
 303 1 4   0.036310   4.531438  21.882317  19.021658   # H_
 304 1 4   0.044044   2.785350  23.397637  19.729292   # H_
 305 1 2  -0.676865   1.933822   3.566410   0.000000   # O_3
 306 1 3   0.478860   3.152211   3.152211   0.000000   # C_3
 307 1 2  -0.678062   3.566410   1.933822   0.000000   # O_3
 308 1 3  -0.146353   4.209224   4.209224   0.000000   # C_3
 309 1 3   0.035809   3.891851   5.535197   0.000000   # C_3
 310 1 3  -0.015352   5.535197   3.891851   0.000000   # C_3
 311 1 3  -0.100912   4.827832   6.508832   0.000000   # C_3
 312 1 4   0.006832   2.996214   5.779950   0.000000   # H_
 313 1 3   0.007674   6.508832   4.827832   0.000000   # C_3
 314 1 4   0.022669   5.779950   2.996214   0.000000   # H_
 315 1 3  -0.023827   6.204907   6.204907   0.000000   # C_3
 316 1 3   0.052718   7.243093   7.243093   0.000000   # C_3
 317 1 4   0.036187   4.558872   7.399090   0.000000   # H_
 318 1 3  -0.098014   6.939168   8.620168   0.000000   # C_3
 319 1 5  -0.218937   7.874611   4.304705   0.410971   # N_3
 320 1 3  -0.176477   8.620168   6.939168   0.000000   # C_3
 321 1 3   0.055541   7.912803   9.556149   0.000000   # C_3
 322 1 5  -0.087100   5.639284   9.111827  26.192670   # N_3
 323 1 3   0.095395   9.556149   7.912803   0.000000   # C_3
 324 1 4   0.067497   8.889128   6.048910   0.000000   # H_
 325 1 3  -0.202336   9.238776   9.238776   0.000000   # C_3
 326 1 3   0.489938  10.295789  10.295789   0.000000   # C_3
 327 1 4  -0.013914   7.668050  10.451786   0.000000   # H_
 328 1 4  -0.032406  10.451786   7.668050   0.000000   # H_
 329 1 2  -0.679850   9.881590  11.514178   0.000000   # O_3
 330 1 2  -0.681090  11.514178   9.881590   0.000000   # O_3
 331 1 3  -0.064831   3.820039  12.048063  24.884986   # C_3
 332 1 3   0.062461   5.724814   9.742000  24.836304   # C_3
 333 1 3  -0.087835   9.335064   3.109716   1.981428   # C_3
 334 1 3   0.040350   7.860356   3.518535   1.681000   # C_3
 335 1 3  -0.101420   6.135516  11.248445  24.855669   # C_3
 336 1 3  -0.047106   5.117771  12.124179  25.624626   # C_3
 337 1 3  -0.102565   4.328104   9.652974  24.195911   # C_3
 338 1 3  -0.049386   3.306325  10.595141  24.955185   # C_3
 339 1 4   0.031695   2.338069  10.586535  24.442816   # H_
 340 1 4   0.068366   3.177762  10.342319  26.047969   # H_
 341 1 4   0.072752   3.972539   8.609679  24.310219   # H_
 342 1 4   0.049522   4.393193   9.865184  23.128408   # H_
 343 1 3  -0.069514   9.364649   4.309008   4.138219   # C_3
 344 1 3  -0.048726   8.023884   4.983291   3.917133   # C_3
 345 1 4   0.036375   9.980030   4.961505   4.791253   # H_
 346 1 3  -0.050191  10.112896   4.136605   2.796915   # C_3
 347 1 3  -0.089791   7.118295   4.209493   2.916871   # C_3
 348 1 4   0.019647  11.128758   3.728592   2.981960   # H_
 349 1 4   0.026242  10.215908   5.122343   2.282932   # H_
 350 1 4   0.047776   3.148177  12.748435  25.437968   # H_
 351 1 4   0.172826   8.187411   3.680987  26.524028   # H_
 352 1 4   0.120743   5.109164   9.690898  26.881745   # H_
 353 1 4   0.035337   3.938112  12.419228  23.833890   # H_
 354 1 4   0.038420   8.238245   5.991353   3.506700   # H_
 355 1 4   0.029244   7.533839   5.115081   4.890769   # H_
 356 1 4   0.055842   6.333739   4.916858   2.566147   # H_
 357 1 4   0.051901   6.144660  11.542418  23.802153   # H_
 358 1 4   0.093198   7.129323  11.448013  25.227372   # H_
 359 1 4   0.063560   5.470377  13.157523  25.642108   # H_
 360 1 4   0.014675   9.315968   2.144956   2.538444   # H_
 361 1 4  -0.010503   9.894500   2.967436   1.019896   # H_
 362 1 4  -0.007603   7.324050   2.561575   1.484121   # H_
 363 1 4   0.041584   6.419806   9.136840  24.202904   # H_
 364 1 4   0.075155   4.998622  11.809227  26.707459   # H_
 365 1 4   0.038334   9.245231   3.354469   4.668339   # H_
 366 1 4   0.045979   6.590058   3.410951   3.470660   # H_
 367 1 2  -0.675388   1.933822  23.329590   0.000000   # O_3
 368 1 3   0.481000   3.152211  23.743789   0.000000   # C_3
 369 1 2  -0.618136   3.566410  24.962178   0.000000   # O_3
 370 1 3  -0.168335   4.209224  22.686776   0.000000   # C_3
 371 1 3   0.071019   3.891851  21.360803   0.000000   # C_3
 372 1 3   0.032795   5.535197  23.004149   0.000000   # C_3
 373 1 3  -0.148870   4.827832  20.387168   0.000000   # C_3
 374 1 4  -0.012543   2.996214  21.116050   0.000000   # H_
 375 1 3  -0.078211   6.508832  22.068168   0.000000   # C_3
 376 1 4   0.022615   5.779950  23.899786   0.000000   # H_
 377 1 3   0.034629   6.204907  20.691093   0.000000   # C_3
 378 1 3  -0.011185   7.243093  19.652907   0.000000   # C_3
 379 1 4   0.057630   4.558872  19.496910   0.000000   # H_
 380 1 3   0.000037   6.939168  18.275832   0.000000   # C_3
 381 1 5  -0.022500   7.874611  22.591295  26.485029   # N_3
 382 1 3  -0.112282   8.620168  19.956832   0.000000   # C_3
 383 1 3  -0.006366   7.912803  17.339851   0.000000   # C_3
 384 1 5  -0.149677   5.639284  17.784173   0.703061   # N_3
 385 1 3   0.039727   9.556149  18.983197   0.000000   # C_3
 386 1 4   0.044746   8.889128  20.847090   0.000000   # H_
 387 1 3  -0.150730   9.238776  17.657224   0.000000   # C_3
 388 1 3   0.474252  10.295789  16.600211   0.000000   # C_3
 389 1 4   0.029835   7.668050  16.444214   0.000000   # H_
 390 1 4   0.006840  10.451786  19.227950   0.000000   # H_
 391 1 2  -0.672078   9.881590  15.381822   0.000000   # O_3
 392 1 2  -0.672705  11.514178  17.014410   0.000000   # O_3
 393 1 3  -0.081896   3.820039  14.847937   2.011014   # C_3
 394 1 3   0.052268   5.724814  17.154000   2.059696   # C_3
 395 1 3  -0.090201   9.335064  23.786284  24.914572   # C_3
 396 1 3   0.057156   7.860356  23.377465  25.215000   # C_3
 397 1 3  -0.113682   6.135516  15.647555   2.040331   # C_3
 398 1 3  -0.030211   5.117771  14.771821   1.271374   # C_3
 399 1 3  -0.106901   4.328104  17.243026   2.700089   # C_3
 400 1 3  -0.037919   3.306325  16.300859   1.940546   # C_3
 401 1 4   0.007947   2.338069  16.309465   2.453184   # H_
 402 1 4  -0.010920   3.177762  16.553681   0.847762   # H_
 403 1 4   0.048232   3.972539  18.286321   2.585781   # H_
 404 1 4   0.048653   4.393193  17.030816   3.767592   # H_
 405 1 3  -0.071545   9.364649  22.586992  22.757781   # C_3
 406 1 3  -0.045396   8.023884  21.912709  22.978867   # C_3
 407 1 4   0.041288   9.980030  21.934495  22.104747   # H_
 408 1 3  -0.043405  10.112896  22.759395  24.099085   # C_3
 409 1 3  -0.089050   7.118295  22.686507  23.979129   # C_3
 410 1 4   0.038083  11.128758  23.167408  23.914309   # H_
 411 1 4   0.061989  10.215908  21.773926  24.613068   # H_
 412 1 4   0.001070   3.148177  14.147565   1.458032   # H_
 413 1 4  -0.006723   8.187411  23.215013   0.371972   # H_
 414 1 4   0.043242   5.109164  17.205102   0.014255   # H_
 415 1 4   0.033814   3.938112  14.476772   3.062110   # H_
 416 1 4   0.053891   8.238245  20.904647  23.389300   # H_
 417 1 4   0.033053   7.533839  21.780919  22.005231   # H_
 418 1 4   0.087362   6.333739  21.979142  24.329853   # H_
 419 1 4   0.052452   6.144660  15.353582   3.093847   # H_
 420 1 4   0.055409   7.129323  15.447987   1.668628   # H_
 421 1 4  -0.001723   5.470377  13.738477   1.253892   # H_
 422 1 4   0.074265   9.315968  24.751044  24.357556   # H_
 423 1 4   0.091606   9.894500  23.928564  25.876104   # H_
 424 1 4   0.072847   7.324050  24.334425  25.411879   # H_
 425 1 4   0.023585   6.419806  17.759429   2.693096   # H_
 426 1 4  -0.011368   4.998622  15.086773   0.188541   # H_
 427 1 4   0.053015   9.245231  23.541531  22.227661   # H_
 428 1 4   0.070802   6.590058  23.485318  23.425340   # H_
 429 1 2  -0.612171  24.962178  23.329590   0.000000   # O_3
 430 1 3   0.454192  23.743789  23.743789   0.000000   # C_3
 431 1 2  -0.608068  23.329590  24.962178   0.000000   # O_3
 432 1 3  -0.095942  22.686776  22.686776   0.000000   # C_3
 433 1 3   0.001983  23.004149  21.360803   0.000000   # C_3
 434 1 3  -0.046315  21.360803  23.004149   0.000000   # C_3
 435 1 3  -0.068740  22.068168  20.387168   0.000000   # C_3
 436 1 4   0.039374  23.899786  21.116050   0.000000   # H_
 437 1 3   0.031393  20.387168  22.068168   0.000000   # C_3
 438 1 4   0.056371  21.116050  23.899786   0.000000   # H_
 439 1 3  -0.039856  20.691093  20.691093   0.000000   # C_3
 440 1 3   0.061051  19.652907  19.652907   0.000000   # C_3
 441 1 4   0.029183  22.337128  19.496910   0.000000   # H_
 442 1 3  -0.099646  19.956832  18.275832   0.000000   # C_3
 443 1 5  -0.221007  19.021389  22.591295   0.410971   # N_3
 444 1 3  -0.181826  18.275832  19.956832   0.000000   # C_3
 445 1 3   0.057554  18.983197  17.339851   0.000000   # C_3
 446 1 5  -0.087351  21.256716  17.784173  26.192670   # N_3
 447 1 3   0.099252  17.339851  18.983197   0.000000   # C_3
 448 1 4   0.070331  18.006872  20.847090   0.000000   # H_
 449 1 3  -0.204541  17.657224  17.657224   0.000000   # C_3
 450 1 3   0.490570  16.600211  16.600211   0.000000   # C_3
 451 1 4  -0.014223  19.227950  16.444214   0.000000   # H_
 452 1 4  -0.033346  16.444214  19.227950   0.000000   # H_
 453 1 2  -0.679916  17.014410  15.381822   0.000000   # O_3
 454 1 2  -0.681154  15.381822  17.014410   0.000000   # O_3
 455 1 3  -0.064754  23.075961  14.847937  24.884986   # C_3
 456 1 3   0.063415  21.171186  17.154000  24.836304   # C_3
 457 1 3  -0.096295  17.560936  23.786284   1.981428   # C_3
 458 1 3   0.046400  19.035644  23.377465   1.681000   # C_3
 459 1 3  -0.102566  20.760484  15.647555  24.855669   # C_3
 460 1 3  -0.046484  21.778229  14.771821  25.624626   # C_3
 461 1 3  -0.104282  22.567896  17.243026  24.195911   # C_3
 462 1 3  -0.046338  23.589675  16.300859  24.955185   # C_3
 463 1 4   0.053936  24.557931  16.309465  24.442816   # H_
 464 1 4   0.073134  23.717969  16.553681  26.047969   # H_
 465 1 4   0.084207  22.923192  18.286321  24.310219   # H_
 466 1 4   0.060872  22.502807  17.030816  23.128408   # H_
 467 1 3  -0.075005  17.531351  22.586992   4.138219   # C_3
 468 1 3  -0.042708  18.872116  21.912709   3.917133   # C_3
 469 1 4   0.040382  16.915970  21.934495   4.791253   # H_
 470 1 3  -0.042807  16.783104  22.759395   2.796915   # C_3
 471 1 3  -0.093987  19.777705  22.686507   2.916871   # C_3
 472 1 4   0.025589  15.767242  23.167408   2.981960   # H_
 473 1 4   0.024766  16.680092  21.773926   2.282932   # H_
 474 1 4   0.062360  23.747823  14.147565  25.437968   # H_
 475 1 4   0.180517  18.708589  23.215013  26.524028   # H_
 476 1 4   0.119571  21.786836  17.205102  26.881745   # H_
 477 1 4   0.044186  22.957888  14.476772  23.833890   # H_
 478 1 4   0.036640  18.657755  20.904647   3.506700   # H_
 479 1 4   0.030707  19.362161  21.780919   4.890769   # H_
 480 1 4   0.059919  20.561992  21.979142   2.566147   # H_
 481 1 4   0.053200  20.751340  15.353582  23.802153   # H_
 482 1 4   0.092857  19.766677  15.447987  25.227372   # H_
 483 1 4   0.063112  21.425623  13.738477  25.642108   # H_
 484 1 4   0.063457  17.580032  24.751044   2.538444   # H_
 485 1 4   0.013614  17.001500  23.928564   1.019896   # H_
 486 1 4   0.023004  19.571950  24.334425   1.484121   # H_
 487 1 4   0.043620  20.476194  17.759429  24.202904   # H_
 488 1 4   0.074404  21.897378  15.086773  26.707459   # H_