 (written by mofun)

1496 atoms
0 bonds
0 angles
0 dihedrals
0 impropers

5 atom types
   0.000000  26.896000 xlo xhi
   0.000000  26.896000 ylo yhi
   0.000000  26.896000 zlo zhi

Masses

 1 91.2240   # Zr3+4
 2 15.9994   # O_3
 3 12.0107   # C_3
 4 1.0079   # H_
 5 14.0067   # N_3

Pair Coeffs

 1   0.069000   2.783168 # Zr3+4
 2   0.060000   3.118146 # O_3
 3   0.105000   3.430851 # C_3
 4   0.044000   2.571134 # H_
 5   0.069000   3.260689 # N_3

Atoms

 1 1 1   3.189580   2.475508   0.000000   0.000000   # Zr3+4
 2 1 1   3.189040  24.420492   0.000000   0.000000   # Zr3+4
 3 1 1   3.189670   0.000000   2.475508   0.000000   # Zr3+4
 4 1 1   3.189130   0.000000  24.420492   0.000000   # Zr3+4
 5 1 1   3.191340   0.000000   0.000000   2.475508   # Zr3+4
 6 1 1   3.190630   0.000000   0.000000  24.420492   # Zr3+4
 7 1 1   3.214720   2.475508  13.448000  13.448000   # Zr3+4
 8 1 1   3.213710  24.420492  13.448000  13.448000   # Zr3+4
 9 1 1   3.202910   0.000000  15.923508  13.448000   # Zr3+4
 10 1 1   3.202880   0.000000  10.972492  13.448000   # Zr3+4
 11 1 1   3.202890   0.000000  13.448000  15.923508   # Zr3+4
 12 1 1   3.202860   0.000000  13.448000  10.972492   # Zr3+4
 13 1 1   3.202800  15.923508   0.000000  13.448000   # Zr3+4
 14 1 1   3.202760  10.972492   0.000000  13.448000   # Zr3+4
 15 1 1   3.214720  13.448000   2.475508  13.448000   # Zr3+4
 16 1 1   3.213690  13.448000  24.420492  13.448000   # Zr3+4
 17 1 1   3.202790  13.448000   0.000000  15.923508   # Zr3+4
 18 1 1   3.202770  13.448000   0.000000  10.972492   # Zr3+4
 19 1 1   3.201150  15.923508  13.448000   0.000000   # Zr3+4
 20 1 1   3.201110  10.972492  13.448000   0.000000   # Zr3+4
 21 1 1   3.201160  13.448000  15.923508   0.000000   # Zr3+4
 22 1 1   3.201120  13.448000  10.972492   0.000000   # Zr3+4
 23 1 1   3.214760  13.448000  13.448000   2.475508   # Zr3+4
 24 1 1   3.213590  13.448000  13.448000  24.420492   # Zr3+4
 25 1 2  -1.322440   1.221078   1.221078   1.221078   # O_3
 26 1 2  -1.158940  25.674922  25.674922   1.221078   # O_3
 27 1 2  -1.147850  25.674922   1.221078  25.674922   # O_3
 28 1 2  -1.146710   1.221078  25.674922  25.674922   # O_3
 29 1 2  -1.225780   1.221078   1.221078  25.674922   # O_3
 30 1 2  -1.068490  25.674922  25.674922  25.674922   # O_3
 31 1 2  -1.237080   1.221078  25.674922   1.221078   # O_3
 32 1 2  -1.237920  25.674922   1.221078   1.221078   # O_3
 33 1 2  -1.271200   1.221078  14.669078  14.669078   # O_3
 34 1 2  -1.188880  25.674922  12.226922  14.669078   # O_3
 35 1 2  -1.188870  25.674922  14.669078  12.226922   # O_3
 36 1 2  -1.271120   1.221078  12.226922  12.226922   # O_3
 37 1 2  -1.270080   1.221078  14.669078  12.226922   # O_3
 38 1 2  -1.187040  25.674922  12.226922  12.226922   # O_3
 39 1 2  -1.270090   1.221078  12.226922  14.669078   # O_3
 40 1 2  -1.187620  25.674922  14.669078  14.669078   # O_3
 41 1 2  -1.270850  14.669078   1.221078  14.669078   # O_3
 42 1 2  -1.187420  12.226922  25.674922  14.669078   # O_3
 43 1 2  -1.270770  12.226922   1.221078  12.226922   # O_3
 44 1 2  -1.187410  14.669078  25.674922  12.226922   # O_3
 45 1 2  -1.270700  14.669078   1.221078  12.226922   # O_3
 46 1 2  -1.187040  12.226922  25.674922  12.226922   # O_3
 47 1 2  -1.187640  14.669078  25.674922  14.669078   # O_3
 48 1 2  -1.270720  12.226922   1.221078  14.669078   # O_3
 49 1 2  -1.274140  14.669078  14.669078   1.221078   # O_3
 50 1 2  -1.274080  12.226922  12.226922   1.221078   # O_3
 51 1 2  -1.179160  12.226922  14.669078  25.674922   # O_3
 52 1 2  -1.179170  14.669078  12.226922  25.674922   # O_3
 53 1 2  -1.179410  14.669078  14.669078  25.674922   # O_3
 54 1 2  -1.178840  12.226922  12.226922  25.674922   # O_3
 55 1 2  -1.274090  14.669078  12.226922   1.221078   # O_3
 56 1 2  -1.274100  12.226922  14.669078   1.221078   # O_3
 57 1 2  -0.678377   3.566410   0.000000   1.933822   # O_3
 58 1 3   0.485011   3.152211   0.000000   3.152211   # C_3
 59 1 2  -0.676843   1.933822   0.000000   3.566410   # O_3
 60 1 3  -0.163520   4.209224   0.000000   4.209224   # C_3
 61 1 3   0.061101   5.535197   0.000000   3.891851   # C_3
 62 1 3   0.004455   3.891851   0.000000   5.535197   # C_3
 63 1 3  -0.135409   6.508832   0.000000   4.827832   # C_3
 64 1 4  -0.010564   5.779950   0.000000   2.996214   # H_
 65 1 3  -0.015192   4.827832   0.000000   6.508832   # C_3
 66 1 4   0.015741   2.996214   0.000000   5.779950   # H_
 67 1 3   0.010459   6.204907   0.000000   6.204907   # C_3
 68 1 3   0.001677   7.243093   0.000000   7.243093   # C_3
 69 1 4   0.053894   7.399090   0.000000   4.558872   # H_
 70 1 3  -0.010882   8.620168   0.000000   6.939168   # C_3
 71 1 5  -0.196865   4.353924   0.447280   7.890480   # N_3
 72 1 3  -0.129986   6.939168   0.000000   8.620168   # C_3
 73 1 3  -0.006714   9.556149   0.000000   7.912803   # C_3
 74 1 5  -0.192713   9.131192   0.485204   5.587913   # N_3
 75 1 3   0.048738   7.912803   0.000000   9.556149   # C_3
 76 1 4   0.054606   6.048910   0.000000   8.889128   # H_
 77 1 3  -0.155410   9.238776   0.000000   9.238776   # C_3
 78 1 3   0.475619  10.295789   0.000000  10.295789   # C_3
 79 1 4   0.020996  10.451786   0.000000   7.668050   # H_
 80 1 4  -0.000142   7.668050   0.000000  10.451786   # H_
 81 1 2  -0.669488  11.514178   0.000000   9.881590   # O_3
 82 1 2  -0.669685   9.881590   0.000000  11.514178   # O_3
 83 1 4   0.070569   9.687401   1.326511   5.835894   # H_
 84 1 3   0.119503  10.006926  26.404072   4.802819   # C_3
 85 1 3  -0.076627  10.359801   0.027165   3.317891   # C_3
 86 1 3  -0.045256  10.972761  25.840870   2.426557   # C_3
 87 1 3  -0.140551  11.335050   1.199562   3.612671   # C_3
 88 1 3  -0.288387   9.208384   0.547872   2.516928   # C_3
 89 1 4   0.006186  12.270224   0.769495   4.032786   # H_
 90 1 4   0.039656  10.863563   1.979008   4.301746   # H_
 91 1 4   0.021947  11.658609   1.770026   2.735323   # H_
 92 1 4   0.030521  11.822406  25.295688   2.873300   # H_
 93 1 4   0.041580  11.444786  26.324191   1.528231   # H_
 94 1 4   0.022784  10.194929  25.135926   2.073144   # H_
 95 1 4   0.073440   8.818660   1.522045   2.847211   # H_
 96 1 4   0.164635   8.415220  26.675991   2.649794   # H_
 97 1 4   0.013803   9.413062   0.681276   1.408812   # H_
 98 1 4   0.025817   9.416021  25.454643   4.728317   # H_
 99 1 4   0.038385  10.891266  26.087237   5.382159   # H_
 100 1 3  -0.076523   3.720524   1.777019   7.940775   # C_3
 101 1 4   0.158408   3.751723  26.534518   8.196018   # H_
 102 1 4   0.041327   3.205196   2.022848   7.006946   # H_
 103 1 3   0.146763   4.577699   3.031179   8.465516   # C_3
 104 1 4   0.014875   2.923326   1.626401   8.685525   # H_
 105 1 3  -0.244883   5.793667   3.370876   7.528997   # C_3
 106 1 3  -0.209025   5.067744   2.753881   9.889928   # C_3
 107 1 3  -0.239555   3.628808   4.189052   8.489722   # C_3
 108 1 4   0.090501   6.417117   2.491645   7.279671   # H_
 109 1 4   0.079276   6.431372   4.069096   8.003712   # H_
 110 1 4   0.077389   5.521749   3.916058   6.649229   # H_
 111 1 4   0.081062   2.740164   3.893196   9.001553   # H_
 112 1 4   0.072176   3.273781   4.466619   7.474129   # H_
 113 1 4   0.067849   4.117240   5.043538   9.038401   # H_
 114 1 4   0.062502   5.231541   3.711917  10.455282   # H_
 115 1 4   0.069228   6.010180   2.167549   9.874060   # H_
 116 1 4   0.047189   4.347200   2.131239  10.491592   # H_
 117 1 2  -0.673746  23.329590   0.000000   1.933822   # O_3
 118 1 3   0.479396  23.743789   0.000000   3.152211   # C_3
 119 1 2  -0.616624  24.962178   0.000000   3.566410   # O_3
 120 1 3  -0.161159  22.686776   0.000000   4.209224   # C_3
 121 1 3   0.064506  21.360803   0.000000   3.891851   # C_3
 122 1 3   0.025358  23.004149   0.000000   5.535197   # C_3
 123 1 3  -0.139569  20.387168   0.000000   4.827832   # C_3
 124 1 4  -0.005901  21.116050   0.000000   2.996214   # H_
 125 1 3  -0.064765  22.068168   0.000000   6.508832   # C_3
 126 1 4   0.029310  23.899786   0.000000   5.779950   # H_
 127 1 3   0.012108  20.691093   0.000000   6.204907   # C_3
 128 1 3   0.013027  19.652907   0.000000   7.243093   # C_3
 129 1 4   0.055543  19.496910   0.000000   4.558872   # H_
 130 1 3  -0.073249  18.275832   0.000000   6.939168   # C_3
 131 1 5  -0.015127  22.542076  26.448720   7.890480   # N_3
 132 1 3  -0.146959  19.956832   0.000000   8.620168   # C_3
 133 1 3   0.030639  17.339851   0.000000   7.912803   # C_3
 134 1 5  -0.026464  17.764808  26.410796   5.587913   # N_3
 135 1 3   0.064752  18.983197   0.000000   9.556149   # C_3
 136 1 4   0.051382  20.847090   0.000000   8.889128   # H_
 137 1 3  -0.175335  17.657224   0.000000   9.238776   # C_3
 138 1 3   0.482536  16.600211   0.000000  10.295789   # C_3
 139 1 4   0.010079  16.444214   0.000000   7.668050   # H_
 140 1 4  -0.005519  19.227950   0.000000  10.451786   # H_
 141 1 2  -0.670849  15.381822   0.000000   9.881590   # O_3
 142 1 2  -0.670936  17.014410   0.000000  11.514178   # O_3
 143 1 4   0.090336  17.208599  25.569489   5.835894   # H_
 144 1 3  -0.283583  16.889074   0.491928   4.802819   # C_3
 145 1 3   0.321997  16.536199  26.868835   3.317891   # C_3
 146 1 3  -0.355791  15.923239   1.055130   2.426557   # C_3
 147 1 3  -0.256804  15.560950  25.696438   3.612671   # C_3
 148 1 3  -0.121020  17.687616  26.348128   2.516928   # C_3
 149 1 4   0.111787  14.625776  26.126505   4.032786   # H_
 150 1 4   0.080900  16.032437  24.916992   4.301746   # H_
 151 1 4   0.072224  15.237391  25.125974   2.735323   # H_
 152 1 4   0.067434  15.073594   1.600312   2.873300   # H_
 153 1 4   0.014081  15.451214   0.571809   1.528231   # H_
 154 1 4   0.061626  16.701071   1.760074   2.073144   # H_
 155 1 4   0.062318  18.077608  25.373955   2.847211   # H_
 156 1 4  -0.025363  18.480780   0.220009   2.649794   # H_
 157 1 4   0.052863  17.482669  26.214724   1.408812   # H_
 158 1 4   0.076106  17.479979   1.441357   4.728317   # H_
 159 1 4   0.061234  16.004734   0.808763   5.382159   # H_
 160 1 3  -0.096612  23.175476  25.118981   7.940775   # C_3
 161 1 4  -0.003267  23.144277   0.361751   8.196018   # H_
 162 1 4   0.093394  23.690804  24.873152   7.006946   # H_
 163 1 3   0.176353  22.318301  23.864821   8.465516   # C_3
 164 1 4   0.069556  23.972674  25.269599   8.685525   # H_
 165 1 3  -0.262893  21.102333  23.525124   7.528997   # C_3
 166 1 3  -0.233823  21.828256  24.142119   9.889928   # C_3
 167 1 3  -0.257355  23.267192  22.706948   8.489722   # C_3
 168 1 4   0.123737  20.478883  24.404355   7.279671   # H_
 169 1 4   0.088666  20.464628  22.826904   8.003712   # H_
 170 1 4   0.089702  21.374251  22.979942   6.649229   # H_
 171 1 4   0.090833  24.155836  23.002804   9.001553   # H_
 172 1 4   0.089508  23.622219  22.429381   7.474129   # H_
 173 1 4   0.074731  22.778760  21.852462   9.038401   # H_
 174 1 4   0.073502  21.664459  23.184083  10.455282   # H_
 175 1 4   0.110960  20.885820  24.728451   9.874060   # H_
 176 1 4   0.085923  22.548800  24.764761  10.491592   # H_
 177 1 2  -0.600941  23.329590   0.000000  24.962178   # O_3
 178 1 3   0.457436  23.743789   0.000000  23.743789   # C_3
 179 1 2  -0.607890  24.962178   0.000000  23.329590   # O_3
 180 1 3  -0.106578  22.686776   0.000000  22.686776   # C_3
 181 1 3   0.020774  21.360803   0.000000  23.004149   # C_3
 182 1 3  -0.030539  23.004149   0.000000  21.360803   # C_3
 183 1 3  -0.095849  20.387168   0.000000  22.068168   # C_3
 184 1 4   0.031051  21.116050   0.000000  23.899786   # H_
 185 1 3   0.011700  22.068168   0.000000  20.387168   # C_3
 186 1 4   0.051657  23.899786   0.000000  21.116050   # H_
 187 1 3  -0.009370  20.691093   0.000000  20.691093   # C_3
 188 1 3   0.012143  19.652907   0.000000  19.652907   # C_3
 189 1 4   0.044572  19.496910   0.000000  22.337128   # H_
 190 1 3  -0.014831  18.275832   0.000000  19.956832   # C_3
 191 1 5  -0.197349  22.542076   0.447280  19.005520   # N_3
 192 1 3  -0.137650  19.956832   0.000000  18.275832   # C_3
 193 1 3  -0.003165  17.339851   0.000000  18.983197   # C_3
 194 1 5  -0.189365  17.764808   0.485204  21.308087   # N_3
 195 1 3   0.053998  18.983197   0.000000  17.339851   # C_3
 196 1 4   0.058360  20.847090   0.000000  18.006872   # H_
 197 1 3  -0.158944  17.657224   0.000000  17.657224   # C_3
 198 1 3   0.476585  16.600211   0.000000  16.600211   # C_3
 199 1 4   0.019995  16.444214   0.000000  19.227950   # H_
 200 1 4  -0.001426  19.227950   0.000000  16.444214   # H_
 201 1 2  -0.669754  15.381822   0.000000  17.014410   # O_3
 202 1 2  -0.669789  17.014410   0.000000  15.381822   # O_3
 203 1 4   0.069867  17.208599   1.326511  21.060106   # H_
 204 1 3   0.104780  16.889074  26.404072  22.093181   # C_3
 205 1 3  -0.044298  16.536199   0.027165  23.578109   # C_3
 206 1 3  -0.082188  15.923239  25.840870  24.469443   # C_3
 207 1 3  -0.158438  15.560950   1.199562  23.283598   # C_3
 208 1 3  -0.310568  17.687616   0.547872  24.379072   # C_3
 209 1 4   0.015535  14.625776   0.769495  22.863214   # H_
 210 1 4   0.044604  16.032437   1.979008  22.594254   # H_
 211 1 4   0.050345  15.237660   1.770026  24.160677   # H_
 212 1 4   0.054432  15.073594  25.295688  24.022700   # H_
 213 1 4   0.106179  15.451214  26.324191  25.367769   # H_
 214 1 4   0.072412  16.701071  25.135926  24.822856   # H_
 215 1 4   0.087225  18.077608   1.522045  24.048789   # H_
 216 1 4   0.190477  18.480780  26.675991  24.246206   # H_
 217 1 4   0.077960  17.482669   0.681276  25.487188   # H_
 218 1 4   0.030863  17.479979  25.454643  22.167683   # H_
 219 1 4   0.040675  16.004734  26.087237  21.513572   # H_
 220 1 3  -0.080130  23.175476   1.777019  18.955225   # C_3
 221 1 4   0.166688  23.144277  26.534518  18.699982   # H_
 222 1 4   0.058507  23.690804   2.022848  19.889054   # H_
 223 1 3   0.150575  22.318301   3.031179  18.430484   # C_3
 224 1 4   0.025769  23.972674   1.626401  18.210475   # H_
 225 1 3  -0.247035  21.102333   3.370876  19.367003   # C_3
 226 1 3  -0.212602  21.828256   2.753881  17.006072   # C_3
 227 1 3  -0.244905  23.267192   4.189052  18.406278   # C_3
 228 1 4   0.091034  20.478883   2.491645  19.616329   # H_
 229 1 4   0.079561  20.464628   4.069096  18.892288   # H_
 230 1 4   0.079937  21.374251   3.916058  20.246771   # H_
 231 1 4   0.087763  24.155836   3.893196  17.894178   # H_
 232 1 4   0.085086  23.622219   4.466619  19.421871   # H_
 233 1 4   0.072084  22.778760   5.043538  17.857599   # H_
 234 1 4   0.063672  21.664459   3.711917  16.440718   # H_
 235 1 4   0.070388  20.885820   2.167549  17.021672   # H_
 236 1 4   0.050132  22.548800   2.131239  16.404408   # H_
 237 1 2  -0.608211   3.566410   0.000000  24.962178   # O_3
 238 1 3   0.477813   3.152211   0.000000  23.743789   # C_3
 239 1 2  -0.672113   1.933822   0.000000  23.329590   # O_3
 240 1 3  -0.157689   4.209224   0.000000  22.686776   # C_3
 241 1 3   0.057923   5.535197   0.000000  23.004149   # C_3
 242 1 3   0.028776   3.891851   0.000000  21.360803   # C_3
 243 1 3  -0.130041   6.508832   0.000000  22.068168   # C_3
 244 1 4   0.022224   5.779950   0.000000  23.899786   # H_
 245 1 3  -0.070471   4.827832   0.000000  20.387168   # C_3
 246 1 4   0.005914   2.996214   0.000000  21.116050   # H_
 247 1 3   0.011451   6.204907   0.000000  20.691093   # C_3
 248 1 3   0.013132   7.243093   0.000000  19.652907   # C_3
 249 1 4   0.055729   7.399090   0.000000  22.337128   # H_
 250 1 3  -0.072612   8.620168   0.000000  19.956832   # C_3
 251 1 5  -0.014502   4.353924  26.448720  19.005520   # N_3
 252 1 3  -0.146804   6.939168   0.000000  18.275832   # C_3
 253 1 3   0.030247   9.556149   0.000000  18.983197   # C_3
 254 1 5  -0.026286   9.131192  26.410796  21.308087   # N_3
 255 1 3   0.064592   7.912803   0.000000  17.339851   # C_3
 256 1 4   0.050359   6.048910   0.000000  18.006872   # H_
 257 1 3  -0.175242   9.238776   0.000000  17.657224   # C_3
 258 1 3   0.482482  10.295789   0.000000  16.600211   # C_3
 259 1 4   0.010318  10.451786   0.000000  19.227950   # H_
 260 1 4  -0.006115   7.668050   0.000000  16.444214   # H_
 261 1 2  -0.670808  11.514178   0.000000  17.014410   # O_3
 262 1 2  -0.671183   9.881590   0.000000  15.381822   # O_3
 263 1 4   0.089864   9.687401  25.569489  21.060106   # H_
 264 1 3  -0.290140  10.006926   0.491928  22.093181   # C_3
 265 1 3   0.346376  10.359801  26.868835  23.578109   # C_3
 266 1 3  -0.386247  10.972761   1.055130  24.469443   # C_3
 267 1 3  -0.272278  11.335050  25.696438  23.283598   # C_3
 268 1 3  -0.147728   9.208384  26.348128  24.379072   # C_3
 269 1 4   0.119037  12.270224  26.126505  22.863214   # H_
 270 1 4   0.085201  10.863563  24.916992  22.594254   # H_
 271 1 4   0.099288  11.658340  25.125974  24.160677   # H_
 272 1 4   0.090902  11.822406   1.600312  24.022700   # H_
 273 1 4   0.080259  11.444786   0.571809  25.367769   # H_
 274 1 4   0.111445  10.194929   1.760074  24.822856   # H_
 275 1 4   0.076764   8.818660  25.373955  24.048789   # H_
 276 1 4   0.005697   8.415220   0.220009  24.246206   # H_
 277 1 4   0.116480   9.413062  26.214724  25.487188   # H_
 278 1 4   0.079750   9.416021   1.441357  22.167683   # H_
 279 1 4   0.062980  10.891266   0.808763  21.513572   # H_
 280 1 3  -0.093570   3.720524  25.118981  18.955225   # C_3
 281 1 4  -0.015476   3.751723   0.361751  18.699982   # H_
 282 1 4   0.077680   3.205196  24.873152  19.889054   # H_
 283 1 3   0.173057   4.577699  23.864821  18.430484   # C_3
 284 1 4   0.059245   2.923326  25.269599  18.210475   # H_
 285 1 3  -0.261650   5.793667  23.525124  19.367003   # C_3
 286 1 3  -0.230846   5.067744  24.142119  17.006072   # C_3
 287 1 3  -0.252440   3.628808  22.706948  18.406278   # C_3
 288 1 4   0.123580   6.417117  24.404355  19.616329   # H_
 289 1 4   0.088359   6.431372  22.826904  18.892288   # H_
 290 1 4   0.089127   5.521749  22.979942  20.246771   # H_
 291 1 4   0.084082   2.740164  23.002804  17.894178   # H_
 292 1 4   0.076933   3.273781  22.429381  19.421871   # H_
 293 1 4   0.070270   4.117240  21.852462  17.857599   # H_
 294 1 4   0.072288   5.231541  23.184083  16.440718   # H_
 295 1 4   0.109939   6.010180  24.728451  17.021672   # H_
 296 1 4   0.083434   4.347200  24.764761  16.404408   # H_
 297 1 2  -0.684291   1.933822   3.566410   0.000000   # O_3
 298 1 3   0.485883   3.152211   3.152211   0.000000   # C_3
 299 1 2  -0.682597   3.566410   1.933822   0.000000   # O_3
 300 1 3  -0.172526   4.209224   4.209224   0.000000   # C_3
 301 1 3   0.064621   3.891851   5.535197   0.000000   # C_3
 302 1 3   0.011753   5.535197   3.891851   0.000000   # C_3
 303 1 3  -0.152937   4.827832   6.508832   0.000000   # C_3
 304 1 4  -0.017617   2.996214   5.779950   0.000000   # H_
 305 1 3  -0.019698   6.508832   4.827832   0.000000   # C_3
 306 1 4   0.016041   5.779950   2.996214   0.000000   # H_
 307 1 3   0.013311   6.204907   6.204907   0.000000   # C_3
 308 1 3  -0.007414   7.243093   7.243093   0.000000   # C_3
 309 1 4   0.052901   4.558872   7.399090   0.000000   # H_
 310 1 3  -0.006639   6.939168   8.620168   0.000000   # C_3
 311 1 5  -0.132246   7.735828   4.384586   0.784287   # N_3
 312 1 3  -0.125481   8.620168   6.939168   0.000000   # C_3
 313 1 3  -0.012222   7.912803   9.556149   0.000000   # C_3
 314 1 5  -0.196087   5.524438   9.145178   0.091984   # N_3
 315 1 3   0.042889   9.556149   7.912803   0.000000   # C_3
 316 1 4   0.053471   8.889128   6.048910   0.000000   # H_
 317 1 3  -0.155329   9.238776   9.238776   0.000000   # C_3
 318 1 3   0.474109  10.295789  10.295789   0.000000   # C_3
 319 1 4   0.019456   7.668050  10.451786   0.000000   # H_
 320 1 4   0.001103  10.451786   7.668050   0.000000   # H_
 321 1 2  -0.675120   9.881590  11.514178   0.000000   # O_3
 322 1 2  -0.674608  11.514178   9.881590   0.000000   # O_3
 323 1 4   0.053364   5.395607   9.636299   1.006717   # H_
 324 1 3   0.009042   5.100020  10.014726  25.846249   # C_3
 325 1 3   0.139572   4.522293   9.322423  24.580523   # C_3
 326 1 3  -0.230743   3.152211   8.605106  24.886869   # C_3
 327 1 3  -0.226480   5.585761   8.455027  23.871545   # C_3
 328 1 3  -0.217451   4.198466  10.458241  23.556055   # C_3
 329 1 4   0.123476   5.773764   7.560466  24.482084   # H_
 330 1 4   0.097089   6.555631   8.973044  23.735182   # H_
 331 1 4   0.078195   5.214328   8.074448  22.895489   # H_
 332 1 4   0.125305   3.243927   7.663746  25.390900   # H_
 333 1 4   0.077939   2.610795   8.340450  23.981012   # H_
 334 1 4   0.081551   2.520424   9.327802  25.486650   # H_
 335 1 4   0.063622   3.220258  10.889921  23.785478   # H_
 336 1 4   0.067697   4.083351  10.084655  22.521366   # H_
 337 1 4   0.074663   5.019063  11.214287  23.491235   # H_
 338 1 4   0.063593   5.928416  10.678519  25.513277   # H_
 339 1 4   0.055185   4.372752  10.787179  26.224407   # H_
 340 1 3  -0.085545   7.383490   4.232086   2.248775   # C_3
 341 1 4   0.033727   8.135233   3.500245   0.383268   # H_
 342 1 4   0.048128   6.402324   4.693083   2.601381   # H_
 343 1 3   0.147990   8.521729   4.771350   3.154363   # C_3
 344 1 4   0.037525   7.218348   3.137149   2.433550   # H_
 345 1 3  -0.237808   8.458792   6.296085   3.312242   # C_3
 346 1 3  -0.227131   9.821881   4.279692   2.523114   # C_3
 347 1 3  -0.219877   8.506936   4.091957   4.552148   # C_3
 348 1 4   0.086756   8.867073   6.857135   2.460715   # H_
 349 1 4   0.075098   9.014732   6.647077   4.199810   # H_
 350 1 4   0.078232   7.417917   6.599203   3.366034   # H_
 351 1 4   0.065943   8.727752   2.985994   4.469039   # H_
 352 1 4   0.069683   7.523080   4.107826   4.983829   # H_
 353 1 4   0.065548   9.165888   4.624498   5.299588   # H_
 354 1 4   0.060129  10.081159   4.906906   1.655987   # H_
 355 1 4   0.062899   9.883742   3.264636   2.211927   # H_
 356 1 4   0.065488  10.647320   4.418744   3.243658   # H_
 357 1 2  -0.679314   1.933822  23.329590   0.000000   # O_3
 358 1 3   0.478007   3.152211  23.743789   0.000000   # C_3
 359 1 2  -0.621785   3.566410  24.962178   0.000000   # O_3
 360 1 3  -0.164570   4.209224  22.686776   0.000000   # C_3
 361 1 3   0.059971   3.891851  21.360803   0.000000   # C_3
 362 1 3   0.022766   5.535197  23.004149   0.000000   # C_3
 363 1 3  -0.143514   4.827832  20.387168   0.000000   # C_3
 364 1 4  -0.010684   2.996214  21.116050   0.000000   # H_
 365 1 3  -0.072766   6.508832  22.068168   0.000000   # C_3
 366 1 4   0.022282   5.779950  23.899786   0.000000   # H_
 367 1 3   0.008200   6.204907  20.691093   0.000000   # C_3
 368 1 3   0.015847   7.243093  19.652907   0.000000   # C_3
 369 1 4   0.047218   4.558872  19.496910   0.000000   # H_
 370 1 3  -0.090137   6.939168  18.275832   0.000000   # C_3
 371 1 5  -0.067765   7.735828  22.511414  26.111713   # N_3
 372 1 3  -0.149600   8.620168  19.956832   0.000000   # C_3
 373 1 3   0.040017   7.912803  17.339851   0.000000   # C_3
 374 1 5  -0.010133   5.524438  17.750822  26.804016   # N_3
 375 1 3   0.063212   9.556149  18.983197   0.000000   # C_3
 376 1 4   0.042432   8.889128  20.847090   0.000000   # H_
 377 1 3  -0.182555   9.238776  17.657224   0.000000   # C_3
 378 1 3   0.483537  10.295789  16.600211   0.000000   # C_3
 379 1 4   0.003803   7.668050  16.444214   0.000000   # H_
 380 1 4  -0.008417  10.451786  19.227950   0.000000   # H_
 381 1 2  -0.676592   9.881590  15.381822   0.000000   # O_3
 382 1 2  -0.676811  11.514178  17.014410   0.000000   # O_3
 383 1 4   0.097231   5.395607  17.259701  25.889283   # H_
 384 1 3  -0.168450   5.100020  16.881274   1.049751   # C_3
 385 1 3   0.147703   4.522293  17.573577   2.315477   # C_3
 386 1 3  -0.226603   3.152211  18.290894   2.008862   # C_3
 387 1 3  -0.228644   5.585761  18.440973   3.024455   # C_3
 388 1 3  -0.216548   4.198466  16.437759   3.339945   # C_3
 389 1 4   0.085428   5.773764  19.335534   2.413916   # H_
 390 1 4   0.079758   6.555631  17.922956   3.160818   # H_
 391 1 4   0.074637   5.214328  18.821552   4.000511   # H_
 392 1 4   0.067146   3.243927  19.232254   1.505100   # H_
 393 1 4   0.066285   2.610795  18.555281   2.914988   # H_
 394 1 4   0.027921   2.520424  17.568198   1.409350   # H_
 395 1 4   0.051434   3.220258  16.006079   3.110522   # H_
 396 1 4   0.066634   4.083351  16.811345   4.374634   # H_
 397 1 4   0.067192   5.019063  15.681713   3.404765   # H_
 398 1 4   0.051375   5.928416  16.217481   1.382723   # H_
 399 1 4   0.012778   4.372752  16.108821   0.671593   # H_
 400 1 3  -0.084172   7.383490  22.663914  24.647225   # C_3
 401 1 4   0.118233   8.135233  23.395755  26.512732   # H_
 402 1 4   0.077904   6.402324  22.202917  24.294619   # H_
 403 1 3   0.173373   8.521729  22.124650  23.741637   # C_3
 404 1 4   0.074803   7.218348  23.758851  24.462450   # H_
 405 1 3  -0.258793   8.458792  20.599915  23.583758   # C_3
 406 1 3  -0.258185   9.821881  22.616308  24.372886   # C_3
 407 1 3  -0.234429   8.506936  22.804043  22.343583   # C_3
 408 1 4   0.128233   8.867073  20.038865  24.435285   # H_
 409 1 4   0.086012   9.014732  20.248923  22.696190   # H_
 410 1 4   0.097365   7.417917  20.296797  23.529966   # H_
 411 1 4   0.079303   8.727752  23.910006  22.426961   # H_
 412 1 4   0.081352   7.523080  22.788174  21.912171   # H_
 413 1 4   0.072910   9.165888  22.271502  21.596412   # H_
 414 1 4   0.116394  10.081428  21.988825  25.240013   # H_
 415 1 4   0.094144   9.883742  23.631364  24.684073   # H_
 416 1 4   0.084327  10.647320  22.477256  23.652342   # H_
 417 1 2  -0.616755  24.962178  23.329590   0.000000   # O_3
 418 1 3   0.459969  23.743789  23.743789   0.000000   # C_3
 419 1 2  -0.613567  23.329590  24.962178   0.000000   # O_3
 420 1 3  -0.119836  22.686776  22.686776   0.000000   # C_3
 421 1 3   0.026595  23.004149  21.360803   0.000000   # C_3
 422 1 3  -0.021659  21.360803  23.004149   0.000000   # C_3
 423 1 3  -0.118958  22.068168  20.387168   0.000000   # C_3
 424 1 4   0.018392  23.899786  21.116050   0.000000   # H_
 425 1 3   0.006904  20.387168  22.068168   0.000000   # C_3
 426 1 4   0.052026  21.116050  23.899786   0.000000   # H_
 427 1 3  -0.005559  20.691093  20.691093   0.000000   # C_3
 428 1 3   0.002294  19.652907  19.652907   0.000000   # C_3
 429 1 4   0.045325  22.337128  19.496910   0.000000   # H_
 430 1 3  -0.010954  19.956832  18.275832   0.000000   # C_3
 431 1 5  -0.134981  19.159904  22.511414   0.784287   # N_3
 432 1 3  -0.132631  18.275832  19.956832   0.000000   # C_3
 433 1 3  -0.008784  18.983197  17.339851   0.000000   # C_3
 434 1 5  -0.192476  21.371293  17.750822   0.091984   # N_3
 435 1 3   0.047893  17.339851  18.983197   0.000000   # C_3
 436 1 4   0.057304  18.006872  20.847090   0.000000   # H_
 437 1 3  -0.158630  17.657224  17.657224   0.000000   # C_3
 438 1 3   0.475022  16.600211  16.600211   0.000000   # C_3
 439 1 4   0.018788  19.227950  16.444214   0.000000   # H_
 440 1 4  -0.000029  16.444214  19.227950   0.000000   # H_
 441 1 2  -0.675192  17.014410  15.381822   0.000000   # O_3
 442 1 2  -0.674659  15.381822  17.014410   0.000000   # O_3
 443 1 4   0.055690  21.500393  17.259701   1.006717   # H_
 444 1 3   0.001490  21.795980  16.881274  25.846249   # C_3
 445 1 3   0.154032  22.373707  17.573577  24.580523   # C_3
 446 1 3  -0.248331  23.743789  18.290894  24.886869   # C_3
 447 1 3  -0.234722  21.310239  18.440973  23.871545   # C_3
 448 1 3  -0.230398  22.697534  16.437759  23.556055   # C_3
 449 1 4   0.127968  21.122236  19.335534  24.482084   # H_
 450 1 4   0.099365  20.340369  17.922956  23.735182   # H_
 451 1 4   0.088546  21.681672  18.821552  22.895489   # H_
 452 1 4   0.143787  23.652073  19.232254  25.390900   # H_
 453 1 4   0.106382  24.285205  18.555281  23.981012   # H_
 454 1 4   0.114430  24.375576  17.568198  25.486650   # H_
 455 1 4   0.084917  23.675473  16.006079  23.785478   # H_
 456 1 4   0.081562  22.812649  16.811345  22.521366   # H_
 457 1 4   0.078662  21.876937  15.681713  23.491235   # H_
 458 1 4   0.065165  20.967584  16.217481  25.513277   # H_
 459 1 4   0.064536  22.522979  16.108821  26.224407   # H_
 460 1 3  -0.090285  19.512510  22.663914   2.248775   # C_3
 461 1 4   0.047799  18.760767  23.395755   0.383268   # H_
 462 1 4   0.054492  20.493676  22.202917   2.601381   # H_
 463 1 3   0.153310  18.374271  22.124650   3.154363   # C_3
 464 1 4   0.058595  19.677652  23.758851   2.433550   # H_
 465 1 3  -0.240568  18.437208  20.599915   3.312242   # C_3
 466 1 3  -0.230690  17.074119  22.616308   2.523114   # C_3
 467 1 3  -0.225693  18.389064  22.804043   4.552148   # C_3
 468 1 4   0.087146  18.028927  20.038865   2.460715   # H_
 469 1 4   0.075769  17.881268  20.248923   4.199810   # H_
 470 1 4   0.078826  19.478083  20.296797   3.366034   # H_
 471 1 4   0.077565  18.168248  23.910006   4.469039   # H_
 472 1 4   0.078739  19.372920  22.788174   4.983829   # H_
 473 1 4   0.070425  17.730112  22.271502   5.299588   # H_
 474 1 4   0.063204  16.814841  21.989094   1.655987   # H_
 475 1 4   0.066758  17.012258  23.631364   2.211927   # H_
 476 1 4   0.067652  16.248680  22.477256   3.243658   # H_
 477 1 2  -0.624011  24.962178   3.566410   0.000000   # O_3
 478 1 3   0.478363  23.743789   3.152211   0.000000   # C_3
 479 1 2  -0.679165  23.329590   1.933822   0.000000   # O_3
 480 1 3  -0.167584  22.686776   4.209224   0.000000   # C_3
 481 1 3   0.057607  23.004149   5.535197   0.000000   # C_3
 482 1 3   0.029748  21.360803   3.891851   0.000000   # C_3
 483 1 3  -0.141249  22.068168   6.508832   0.000000   # C_3
 484 1 4   0.011330  23.899786   5.779950   0.000000   # H_
 485 1 3  -0.082569  20.387168   4.827832   0.000000   # C_3
 486 1 4  -0.003381  21.116050   2.996214   0.000000   # H_
 487 1 3   0.010538  20.691093   6.204907   0.000000   # C_3
 488 1 3   0.013843  19.652907   7.243093   0.000000   # C_3