 (written by mofun)

528 atoms
144 bonds
240 angles
384 dihedrals
0 impropers

9 atom types
2 bond types
3 angle types
4 dihedral types
   0.000000  20.700400 xlo xhi
   0.000000  20.700400 ylo yhi
   0.000000  20.700400 zlo zhi

Masses

 1 91.2240   # Zr3+4
 2 15.9994   # O_3
 3 12.0107   # C_3
 4 1.0079   # H_
 5 1.0079   # H_
 6 12.0107   # C_2
 7 12.0107   # C_R
 8 14.0067   # N_3
 9 15.9994   # O_1

Pair Coeffs

 1   0.069000   2.783168 # Zr3+4
 2   0.060000   3.118146 # O_3
 3   0.105000   3.430851 # C_3
 4   0.044000   2.571134 # H_
 5 0.044000 2.571134   # H_
 6 0.105000 3.430851   # C_2
 7 0.105000 3.430851   # C_R
 8 0.069000 3.260689   # N_3
 9 0.060000 3.118146   # O_1

Bond Coeffs

 1 560.312976 1.423192   # C_R N_3
 2 527.945261 1.044419   # H_ N_3

Angle Coeffs

 1 cosine/periodic  282.369526  -1  3   # C_R C_R N_3
 2 fourier  150.574599  0.317506  0.313225  0.272502   # C_R N_3 H_
 3 fourier  97.017167  0.317506  0.313225  0.272502   # H_ N_3 H_

Dihedral Coeffs

 1 harmonic 0.125000 -1 6   # C_R C_R N_3 H_ M=4
 2 harmonic 3.368555 -1 2   # C_2 C_R C_R N_3 M=4
 3 harmonic 3.368555 -1 2   # C_R C_R C_R N_3 M=4
 4 harmonic 3.368555 -1 2   # H_ C_R C_R N_3 M=4

Atoms

 1 1 1   0.000000   2.481771   0.000000   0.000000   # Zr3+4
 2 1 1   0.000000   2.481771  10.350200  10.350200   # Zr3+4
 3 1 1   0.000000  12.831971   0.000000  10.350200   # Zr3+4
 4 1 1   0.000000  12.831971  10.350200   0.000000   # Zr3+4
 5 1 1   0.000000  18.218629   0.000000   0.000000   # Zr3+4
 6 1 1   0.000000  18.218629  10.350200  10.350200   # Zr3+4
 7 1 1   0.000000   7.868429   0.000000  10.350200   # Zr3+4
 8 1 1   0.000000   7.868429  10.350200   0.000000   # Zr3+4
 9 1 1   0.000000   0.000000   2.481771   0.000000   # Zr3+4
 10 1 1   0.000000   0.000000  12.831971  10.350200   # Zr3+4
 11 1 1   0.000000  10.350200   2.481771  10.350200   # Zr3+4
 12 1 1   0.000000  10.350200  12.831971   0.000000   # Zr3+4
 13 1 1   0.000000   0.000000  18.218629   0.000000   # Zr3+4
 14 1 1   0.000000   0.000000   7.868429  10.350200   # Zr3+4
 15 1 1   0.000000  10.350200  18.218629  10.350200   # Zr3+4
 16 1 1   0.000000  10.350200   7.868429   0.000000   # Zr3+4
 17 1 1   0.000000   0.000000   0.000000   2.481771   # Zr3+4
 18 1 1   0.000000   0.000000  10.350200  12.831971   # Zr3+4
 19 1 1   0.000000  10.350200   0.000000  12.831971   # Zr3+4
 20 1 1   0.000000  10.350200  10.350200   2.481771   # Zr3+4
 21 1 1   0.000000   0.000000   0.000000  18.218629   # Zr3+4
 22 1 1   0.000000   0.000000  10.350200   7.868429   # Zr3+4
 23 1 1   0.000000  10.350200   0.000000   7.868429   # Zr3+4
 24 1 1   0.000000  10.350200  10.350200  18.218629   # Zr3+4
 25 1 2   0.000000   1.161292   9.188908   9.188908   # O_3
 26 1 2   0.000000  11.511492  19.539108   9.188908   # O_3
 27 1 2   0.000000  11.511492   9.188908  19.539108   # O_3
 28 1 2   0.000000   9.188908   1.161292   9.188908   # O_3
 29 1 2   0.000000   9.188908  11.511492  19.539108   # O_3
 30 1 2   0.000000  19.539108  19.539108   1.161292   # O_3
 31 1 2   0.000000  19.539108   9.188908  11.511492   # O_3
 32 1 2   0.000000   1.161292   1.161292   1.161292   # O_3
 33 1 2   0.000000  11.511492  11.511492   1.161292   # O_3
 34 1 2   0.000000  19.539108   1.161292   1.161292   # O_3
 35 1 2   0.000000  19.539108  11.511492  11.511492   # O_3
 36 1 2   0.000000   9.188908   1.161292  11.511492   # O_3
 37 1 2   0.000000   9.188908  11.511492   1.161292   # O_3
 38 1 2   0.000000   1.161292  19.539108   1.161292   # O_3
 39 1 2   0.000000   1.161292   9.188908  11.511492   # O_3
 40 1 2   0.000000  11.511492  19.539108  11.511492   # O_3
 41 1 2   0.000000  11.511492   9.188908   1.161292   # O_3
 42 1 2   0.000000  19.539108  19.539108  19.539108   # O_3
 43 1 2   0.000000  19.539108   9.188908   9.188908   # O_3
 44 1 2   0.000000   9.188908  19.539108   9.188908   # O_3
 45 1 2   0.000000   9.188908   9.188908  19.539108   # O_3
 46 1 2   0.000000   1.161292   1.161292  19.539108   # O_3
 47 1 2   0.000000   1.161292  11.511492   9.188908   # O_3
 48 1 2   0.000000  11.511492   1.161292   9.188908   # O_3
 49 1 6   0.000000   3.179581   0.000000  17.520819   # C_2
 50 1 9   0.000000   3.528595   0.000000  18.727815   # O_1
 51 1 9   0.000000   1.972577  20.700400  17.171832   # O_1
 52 1 7   0.000000   4.243569   0.000000  16.456806   # C_R
 53 1 7   0.000000   3.816555  20.700400  15.162811   # C_R
 54 1 5   0.000000   2.700552  20.700400  14.930824   # H_
 55 2 8   0.000000   4.391140  20.700400  12.850365   # N_3
 56 1 7   0.000000   4.812543  20.700400  14.167800   # C_R
 57 1 7   0.000000   6.106548   0.000000  14.593785   # C_R
 58 1 7   0.000000   6.532563   0.000000  15.887781   # C_R
 59 1 7   0.000000   5.537574   0.000000  16.883792   # C_R
 60 2 8   0.000000   5.959036   0.000000  18.200948   # N_3
 61 1 5   0.000000   7.648566   0.000000  16.119768   # H_
 62 1 9   0.000000   8.377540   0.000000  13.878760   # O_1
 63 1 6   0.000000   7.170536   0.000000  13.529773   # C_2
 64 1 9   0.000000   6.821523  20.700400  12.322777   # O_1
 65 2 5   0.000000   3.429183  20.700400  12.574583   # H_
 66 2 5   0.000000   5.169064  20.700400  12.172245   # H_
 67 2 5   0.000000   5.181109   0.000000  18.879059   # H_
 68 2 5   0.000000   6.920985   0.000000  18.476744   # H_
 69 1 6   0.000000   3.179581  10.350200   7.170619   # C_2
 70 1 9   0.000000   3.528595  10.350200   8.377615   # O_1
 71 1 9   0.000000   1.972577  10.350200   6.821632   # O_1
 72 1 7   0.000000   4.243569  10.350200   6.106606   # C_R
 73 1 7   0.000000   3.816555  10.350200   4.812611   # C_R
 74 1 5   0.000000   2.700552  10.350200   4.580624   # H_
 75 2 8   0.000000   4.391140  10.350200   2.500165   # N_3
 76 1 7   0.000000   4.812543  10.350200   3.817600   # C_R
 77 1 7   0.000000   6.106548  10.350200   4.243585   # C_R
 78 1 7   0.000000   6.532563  10.350200   5.537581   # C_R
 79 1 7   0.000000   5.537574  10.350200   6.533592   # C_R
 80 2 8   0.000000   5.959036  10.350200   7.850748   # N_3
 81 1 5   0.000000   7.648566  10.350200   5.769568   # H_
 82 1 9   0.000000   8.377540  10.350200   3.528560   # O_1
 83 1 6   0.000000   7.170536  10.350200   3.179573   # C_2
 84 1 9   0.000000   6.821523  10.350200   1.972577   # O_1
 85 2 5   0.000000   3.429183  10.350200   2.224383   # H_
 86 2 5   0.000000   5.169064  10.350200   1.822045   # H_
 87 2 5   0.000000   5.181109  10.350200   8.528859   # H_
 88 2 5   0.000000   6.920985  10.350200   8.126544   # H_
 89 1 6   0.000000  13.529781   0.000000   7.170619   # C_2
 90 1 9   0.000000  13.878795   0.000000   8.377615   # O_1
 91 1 9   0.000000  12.322777  20.700400   6.821632   # O_1
 92 1 7   0.000000  14.593769   0.000000   6.106606   # C_R
 93 1 7   0.000000  14.166755  20.700400   4.812611   # C_R
 94 1 5   0.000000  13.050752  20.700400   4.580624   # H_
 95 2 8   0.000000  14.741340  20.700400   2.500165   # N_3
 96 1 7   0.000000  15.162743  20.700400   3.817600   # C_R
 97 1 7   0.000000  16.456748   0.000000   4.243585   # C_R
 98 1 7   0.000000  16.882763   0.000000   5.537581   # C_R
 99 1 7   0.000000  15.887774   0.000000   6.533592   # C_R
 100 2 8   0.000000  16.309236   0.000000   7.850748   # N_3
 101 1 5   0.000000  17.998766   0.000000   5.769568   # H_
 102 1 9   0.000000  18.727740   0.000000   3.528560   # O_1
 103 1 6   0.000000  17.520736   0.000000   3.179573   # C_2
 104 1 9   0.000000  17.171723  20.700400   1.972577   # O_1
 105 2 5   0.000000  13.779383  20.700400   2.224383   # H_
 106 2 5   0.000000  15.519264  20.700400   1.822045   # H_
 107 2 5   0.000000  15.531309   0.000000   8.528859   # H_
 108 2 5   0.000000  17.271185   0.000000   8.126544   # H_
 109 1 6   0.000000  13.529781  10.350200  17.520819   # C_2
 110 1 9   0.000000  13.878795  10.350200  18.727815   # O_1
 111 1 9   0.000000  12.322777  10.350200  17.171832   # O_1
 112 1 7   0.000000  14.593769  10.350200  16.456806   # C_R
 113 1 7   0.000000  14.166755  10.350200  15.162811   # C_R
 114 1 5   0.000000  13.050752  10.350200  14.930824   # H_
 115 2 8   0.000000  14.741340  10.350200  12.850365   # N_3
 116 1 7   0.000000  15.162743  10.350200  14.167800   # C_R
 117 1 7   0.000000  16.456748  10.350200  14.593785   # C_R
 118 1 7   0.000000  16.882763  10.350200  15.887781   # C_R
 119 1 7   0.000000  15.887774  10.350200  16.883792   # C_R
 120 2 8   0.000000  16.309236  10.350200  18.200948   # N_3
 121 1 5   0.000000  17.998766  10.350200  16.119768   # H_
 122 1 9   0.000000  18.727740  10.350200  13.878760   # O_1
 123 1 6   0.000000  17.520736  10.350200  13.529773   # C_2
 124 1 9   0.000000  17.171723  10.350200  12.322777   # O_1
 125 2 5   0.000000  13.779383  10.350200  12.574583   # H_
 126 2 5   0.000000  15.519264  10.350200  12.172245   # H_
 127 2 5   0.000000  15.531309  10.350200  18.879059   # H_
 128 2 5   0.000000  17.271185  10.350200  18.476744   # H_
 129 1 6   0.000000  17.520819   0.000000  17.520819   # C_2
 130 1 9   0.000000  17.171805   0.000000  18.727815   # O_1
 131 1 9   0.000000  18.727823   0.000000  17.171832   # O_1
 132 1 7   0.000000  16.456831   0.000000  16.456806   # C_R
 133 1 7   0.000000  16.883845   0.000000  15.162811   # C_R
 134 1 5   0.000000  17.999848   0.000000  14.930824   # H_
 135 2 8   0.000000  16.309260   0.000000  12.850365   # N_3
 136 1 7   0.000000  15.887857   0.000000  14.167800   # C_R
 137 1 7   0.000000  14.593852   0.000000  14.593785   # C_R
 138 1 7   0.000000  14.167837   0.000000  15.887781   # C_R
 139 1 7   0.000000  15.162826   0.000000  16.883792   # C_R
 140 2 8   0.000000  14.741364   0.000000  18.200948   # N_3
 141 1 5   0.000000  13.051834   0.000000  16.119768   # H_
 142 1 9   0.000000  12.322860   0.000000  13.878760   # O_1
 143 1 6   0.000000  13.529864   0.000000  13.529773   # C_2
 144 1 9   0.000000  13.878877   0.000000  12.322777   # O_1
 145 2 5   0.000000  17.271217   0.000000  12.574583   # H_
 146 2 5   0.000000  15.531336   0.000000  12.172245   # H_
 147 2 5   0.000000  15.519291   0.000000  18.879059   # H_
 148 2 5   0.000000  13.779415   0.000000  18.476744   # H_
 149 1 6   0.000000  17.520819  10.350200   7.170619   # C_2
 150 1 9   0.000000  17.171805  10.350200   8.377615   # O_1
 151 1 9   0.000000  18.727823  10.350200   6.821632   # O_1
 152 1 7   0.000000  16.456831  10.350200   6.106606   # C_R
 153 1 7   0.000000  16.883845  10.350200   4.812611   # C_R
 154 1 5   0.000000  17.999848  10.350200   4.580624   # H_
 155 2 8   0.000000  16.309260  10.350200   2.500165   # N_3
 156 1 7   0.000000  15.887857  10.350200   3.817600   # C_R
 157 1 7   0.000000  14.593852  10.350200   4.243585   # C_R
 158 1 7   0.000000  14.167837  10.350200   5.537581   # C_R
 159 1 7   0.000000  15.162826  10.350200   6.533592   # C_R
 160 2 8   0.000000  14.741364  10.350200   7.850748   # N_3
 161 1 5   0.000000  13.051834  10.350200   5.769568   # H_
 162 1 9   0.000000  12.322860  10.350200   3.528560   # O_1
 163 1 6   0.000000  13.529864  10.350200   3.179573   # C_2
 164 1 9   0.000000  13.878877  10.350200   1.972577   # O_1
 165 2 5   0.000000  17.271217  10.350200   2.224383   # H_
 166 2 5   0.000000  15.531336  10.350200   1.822045   # H_
 167 2 5   0.000000  15.519291  10.350200   8.528859   # H_
 168 2 5   0.000000  13.779415  10.350200   8.126544   # H_
 169 1 6   0.000000   7.170619   0.000000   7.170619   # C_2
 170 1 9   0.000000   6.821605   0.000000   8.377615   # O_1
 171 1 9   0.000000   8.377623   0.000000   6.821632   # O_1
 172 1 7   0.000000   6.106631   0.000000   6.106606   # C_R
 173 1 7   0.000000   6.533645   0.000000   4.812611   # C_R
 174 1 5   0.000000   7.649648   0.000000   4.580624   # H_
 175 2 8   0.000000   5.959060   0.000000   2.500165   # N_3
 176 1 7   0.000000   5.537657   0.000000   3.817600   # C_R
 177 1 7   0.000000   4.243652   0.000000   4.243585   # C_R
 178 1 7   0.000000   3.817637   0.000000   5.537581   # C_R
 179 1 7   0.000000   4.812626   0.000000   6.533592   # C_R
 180 2 8   0.000000   4.391164   0.000000   7.850748   # N_3
 181 1 5   0.000000   2.701634   0.000000   5.769568   # H_
 182 1 9   0.000000   1.972660   0.000000   3.528560   # O_1
 183 1 6   0.000000   3.179664   0.000000   3.179573   # C_2
 184 1 9   0.000000   3.528677   0.000000   1.972577   # O_1
 185 2 5   0.000000   6.921017   0.000000   2.224383   # H_
 186 2 5   0.000000   5.181136   0.000000   1.822045   # H_
 187 2 5   0.000000   5.169091   0.000000   8.528859   # H_
 188 2 5   0.000000   3.429215   0.000000   8.126544   # H_
 189 1 6   0.000000   7.170619  10.350200  17.520819   # C_2
 190 1 9   0.000000   6.821605  10.350200  18.727815   # O_1
 191 1 9   0.000000   8.377623  10.350200  17.171832   # O_1
 192 1 7   0.000000   6.106631  10.350200  16.456806   # C_R
 193 1 7   0.000000   6.533645  10.350200  15.162811   # C_R
 194 1 5   0.000000   7.649648  10.350200  14.930824   # H_
 195 2 8   0.000000   5.959060  10.350200  12.850365   # N_3
 196 1 7   0.000000   5.537657  10.350200  14.167800   # C_R
 197 1 7   0.000000   4.243652  10.350200  14.593785   # C_R
 198 1 7   0.000000   3.817637  10.350200  15.887781   # C_R
 199 1 7   0.000000   4.812626  10.350200  16.883792   # C_R
 200 2 8   0.000000   4.391164  10.350200  18.200948   # N_3
 201 1 5   0.000000   2.701634  10.350200  16.119768   # H_
 202 1 9   0.000000   1.972660  10.350200  13.878760   # O_1
 203 1 6   0.000000   3.179664  10.350200  13.529773   # C_2
 204 1 9   0.000000   3.528677  10.350200  12.322777   # O_1
 205 2 5   0.000000   6.921017  10.350200  12.574583   # H_
 206 2 5   0.000000   5.181136  10.350200  12.172245   # H_
 207 2 5   0.000000   5.169091  10.350200  18.879059   # H_
 208 2 5   0.000000   3.429215  10.350200  18.476744   # H_
 209 1 6   0.000000  17.520819   3.179581   0.000000   # C_2
 210 1 9   0.000000  18.727815   3.528595  20.700400   # O_1
 211 1 9   0.000000  17.171832   1.972577   0.000000   # O_1
 212 1 7   0.000000  16.456806   4.243569  20.700400   # C_R
 213 1 7   0.000000  15.162811   3.816555   0.000000   # C_R
 214 1 5   0.000000  14.930824   2.700552   0.000000   # H_
 215 2 8   0.000000  12.850365   4.391140   0.000000   # N_3
 216 1 7   0.000000  14.167800   4.812543   0.000000   # C_R
 217 1 7   0.000000  14.593785   6.106548  20.700400   # C_R
 218 1 7   0.000000  15.887781   6.532563  20.700400   # C_R
 219 1 7   0.000000  16.883792   5.537574  20.700400   # C_R
 220 2 8   0.000000  18.200948   5.959036  20.700400   # N_3
 221 1 5   0.000000  16.119768   7.648566  20.700400   # H_
 222 1 9   0.000000  13.878760   8.377540  20.700400   # O_1
 223 1 6   0.000000  13.529773   7.170536  20.700400   # C_2
 224 1 9   0.000000  12.322777   6.821523   0.000000   # O_1
 225 2 5   0.000000  12.574583   3.429183   0.000000   # H_
 226 2 5   0.000000  12.172245   5.169064   0.000000   # H_
 227 2 5   0.000000  18.879059   5.181109  20.700400   # H_
 228 2 5   0.000000  18.476744   6.920985  20.700400   # H_
 229 1 6   0.000000  17.520819  13.529781  10.350200   # C_2
 230 1 9   0.000000  18.727815  13.878795  10.350200   # O_1
 231 1 9   0.000000  17.171832  12.322777  10.350200   # O_1
 232 1 7   0.000000  16.456806  14.593769  10.350200   # C_R
 233 1 7   0.000000  15.162811  14.166755  10.350200   # C_R
 234 1 5   0.000000  14.930824  13.050752  10.350200   # H_
 235 2 8   0.000000  12.850365  14.741340  10.350200   # N_3
 236 1 7   0.000000  14.167800  15.162743  10.350200   # C_R
 237 1 7   0.000000  14.593785  16.456748  10.350200   # C_R
 238 1 7   0.000000  15.887781  16.882763  10.350200   # C_R
 239 1 7   0.000000  16.883792  15.887774  10.350200   # C_R
 240 2 8   0.000000  18.200948  16.309236  10.350200   # N_3
 241 1 5   0.000000  16.119768  17.998766  10.350200   # H_
 242 1 9   0.000000  13.878760  18.727740  10.350200   # O_1
 243 1 6   0.000000  13.529773  17.520736  10.350200   # C_2
 244 1 9   0.000000  12.322777  17.171723  10.350200   # O_1
 245 2 5   0.000000  12.574583  13.779383  10.350200   # H_
 246 2 5   0.000000  12.172245  15.519264  10.350200   # H_
 247 2 5   0.000000  18.879059  15.531309  10.350200   # H_
 248 2 5   0.000000  18.476744  17.271185  10.350200   # H_
 249 1 6   0.000000   7.170619   3.179581  10.350200   # C_2
 250 1 9   0.000000   8.377615   3.528595  10.350200   # O_1
 251 1 9   0.000000   6.821632   1.972577  10.350200   # O_1
 252 1 7   0.000000   6.106606   4.243569  10.350200   # C_R
 253 1 7   0.000000   4.812611   3.816555  10.350200   # C_R
 254 1 5   0.000000   4.580624   2.700552  10.350200   # H_
 255 2 8   0.000000   2.500165   4.391140  10.350200   # N_3
 256 1 7   0.000000   3.817600   4.812543  10.350200   # C_R
 257 1 7   0.000000   4.243585   6.106548  10.350200   # C_R
 258 1 7   0.000000   5.537581   6.532563  10.350200   # C_R
 259 1 7   0.000000   6.533592   5.537574  10.350200   # C_R
 260 2 8   0.000000   7.850748   5.959036  10.350200   # N_3
 261 1 5   0.000000   5.769568   7.648566  10.350200   # H_
 262 1 9   0.000000   3.528560   8.377540  10.350200   # O_1
 263 1 6   0.000000   3.179573   7.170536  10.350200   # C_2
 264 1 9   0.000000   1.972577   6.821523  10.350200   # O_1
 265 2 5   0.000000   2.224383   3.429183  10.350200   # H_
 266 2 5   0.000000   1.822045   5.169064  10.350200   # H_
 267 2 5   0.000000   8.528859   5.181109  10.350200   # H_
 268 2 5   0.000000   8.126544   6.920985  10.350200   # H_
 269 1 6   0.000000   7.170619  13.529781   0.000000   # C_2
 270 1 9   0.000000   8.377615  13.878795   0.000000   # O_1
 271 1 9   0.000000   6.821632  12.322777  20.700400   # O_1
 272 1 7   0.000000   6.106606  14.593769   0.000000   # C_R
 273 1 7   0.000000   4.812611  14.166755   0.000000   # C_R
 274 1 5   0.000000   4.580624  13.050752  20.700400   # H_
 275 2 8   0.000000   2.500165  14.741340   0.000000   # N_3
 276 1 7   0.000000   3.817600  15.162743   0.000000   # C_R
 277 1 7   0.000000   4.243585  16.456748   0.000000   # C_R
 278 1 7   0.000000   5.537581  16.882763   0.000000   # C_R
 279 1 7   0.000000   6.533592  15.887774   0.000000   # C_R
 280 2 8   0.000000   7.850748  16.309236   0.000000   # N_3
 281 1 5   0.000000   5.769568  17.998766   0.000000   # H_
 282 1 9   0.000000   3.528560  18.727740   0.000000   # O_1
 283 1 6   0.000000   3.179573  17.520736   0.000000   # C_2
 284 1 9   0.000000   1.972577  17.171723   0.000000   # O_1
 285 2 5   0.000000   2.224383  13.779383  20.700400   # H_
 286 2 5   0.000000   1.822045  15.519264   0.000000   # H_
 287 2 5   0.000000   8.528859  15.531309   0.000000   # H_
 288 2 5   0.000000   8.126544  17.271185   0.000000   # H_
 289 1 6   0.000000  17.520819  17.520819   0.000000   # C_2
 290 1 9   0.000000  18.727815  17.171805  20.700400   # O_1
 291 1 9   0.000000  17.171832  18.727823   0.000000   # O_1
 292 1 7   0.000000  16.456806  16.456831   0.000000   # C_R
 293 1 7   0.000000  15.162811  16.883845   0.000000   # C_R
 294 1 5   0.000000  14.930824  17.999848   0.000000   # H_
 295 2 8   0.000000  12.850365  16.309260   0.000000   # N_3
 296 1 7   0.000000  14.167800  15.887857   0.000000   # C_R
 297 1 7   0.000000  14.593785  14.593852   0.000000   # C_R
 298 1 7   0.000000  15.887781  14.167837  20.700400   # C_R
 299 1 7   0.000000  16.883792  15.162826  20.700400   # C_R
 300 2 8   0.000000  18.200948  14.741364  20.700400   # N_3
 301 1 5   0.000000  16.119768  13.051834  20.700400   # H_
 302 1 9   0.000000  13.878760  12.322860  20.700400   # O_1
 303 1 6   0.000000  13.529773  13.529864   0.000000   # C_2
 304 1 9   0.000000  12.322777  13.878877   0.000000   # O_1
 305 2 5   0.000000  12.574583  17.271217   0.000000   # H_
 306 2 5   0.000000  12.172245  15.531336   0.000000   # H_
 307 2 5   0.000000  18.879059  15.519291  20.700400   # H_
 308 2 5   0.000000  18.476744  13.779415  20.700400   # H_
 309 1 6   0.000000  17.520819   7.170619  10.350200   # C_2
 310 1 9   0.000000  18.727815   6.821605  10.350200   # O_1
 311 1 9   0.000000  17.171832   8.377623  10.350200   # O_1
 312 1 7   0.000000  16.456806   6.106631  10.350200   # C_R
 313 1 7   0.000000  15.162811   6.533645  10.350200   # C_R
 314 1 5   0.000000  14.930824   7.649648  10.350200   # H_
 315 2 8   0.000000  12.850365   5.959060  10.350200   # N_3
 316 1 7   0.000000  14.167800   5.537657  10.350200   # C_R
 317 1 7   0.000000  14.593785   4.243652  10.350200   # C_R
 318 1 7   0.000000  15.887781   3.817637  10.350200   # C_R
 319 1 7   0.000000  16.883792   4.812626  10.350200   # C_R
 320 2 8   0.000000  18.200948   4.391164  10.350200   # N_3
 321 1 5   0.000000  16.119768   2.701634  10.350200   # H_
 322 1 9   0.000000  13.878760   1.972660  10.350200   # O_1
 323 1 6   0.000000  13.529773   3.179664  10.350200   # C_2
 324 1 9   0.000000  12.322777   3.528677  10.350200   # O_1
 325 2 5   0.000000  12.574583   6.921017  10.350200   # H_
 326 2 5   0.000000  12.172245   5.181136  10.350200   # H_
 327 2 5   0.000000  18.879059   5.169091  10.350200   # H_
 328 2 5   0.000000  18.476744   3.429215  10.350200   # H_
 329 1 6   0.000000   7.170619  17.520819  10.350200   # C_2
 330 1 9   0.000000   8.377615  17.171805  10.350200   # O_1
 331 1 9   0.000000   6.821632  18.727823  10.350200   # O_1
 332 1 7   0.000000   6.106606  16.456831  10.350200   # C_R
 333 1 7   0.000000   4.812611  16.883845  10.350200   # C_R
 334 1 5   0.000000   4.580624  17.999848  10.350200   # H_
 335 2 8   0.000000   2.500165  16.309260  10.350200   # N_3
 336 1 7   0.000000   3.817600  15.887857  10.350200   # C_R
 337 1 7   0.000000   4.243585  14.593852  10.350200   # C_R
 338 1 7   0.000000   5.537581  14.167837  10.350200   # C_R
 339 1 7   0.000000   6.533592  15.162826  10.350200   # C_R
 340 2 8   0.000000   7.850748  14.741364  10.350200   # N_3
 341 1 5   0.000000   5.769568  13.051834  10.350200   # H_
 342 1 9   0.000000   3.528560  12.322860  10.350200   # O_1
 343 1 6   0.000000   3.179573  13.529864  10.350200   # C_2
 344 1 9   0.000000   1.972577  13.878877  10.350200   # O_1
 345 2 5   0.000000   2.224383  17.271217  10.350200   # H_
 346 2 5   0.000000   1.822045  15.531336  10.350200   # H_
 347 2 5   0.000000   8.528859  15.519291  10.350200   # H_
 348 2 5   0.000000   8.126544  13.779415  10.350200   # H_
 349 1 6   0.000000   7.170619   7.170619   0.000000   # C_2
 350 1 9   0.000000   8.377615   6.821605  20.700400   # O_1
 351 1 9   0.000000   6.821632   8.377623   0.000000   # O_1
 352 1 7   0.000000   6.106606   6.106631   0.000000   # C_R
 353 1 7   0.000000   4.812611   6.533645   0.000000   # C_R
 354 1 5   0.000000   4.580624   7.649648   0.000000   # H_
 355 2 8   0.000000   2.500165   5.959060   0.000000   # N_3
 356 1 7   0.000000   3.817600   5.537657   0.000000   # C_R
 357 1 7   0.000000   4.243585   4.243652   0.000000   # C_R
 358 1 7   0.000000   5.537581   3.817637   0.000000   # C_R
 359 1 7   0.000000   6.533592   4.812626  20.700400   # C_R
 360 2 8   0.000000   7.850748   4.391164  20.700400   # N_3
 361 1 5   0.000000   5.769568   2.701634  20.700400   # H_
 362 1 9   0.000000   3.528560   1.972660   0.000000   # O_1
 363 1 6   0.000000   3.179573   3.179664   0.000000   # C_2
 364 1 9   0.000000   1.972577   3.528677   0.000000   # O_1
 365 2 5   0.000000   2.224383   6.921017   0.000000   # H_
 366 2 5   0.000000   1.822045   5.181136   0.000000   # H_
 367 2 5   0.000000   8.528859   5.169091  20.700400   # H_
 368 2 5   0.000000   8.126544   3.429215  20.700400   # H_
 369 1 6   0.000000   0.000000  17.520819   3.179581   # C_2
 370 1 9   0.000000   0.000000  18.727815   3.528595   # O_1
 371 1 9   0.000000  20.700400  17.171832   1.972577   # O_1
 372 1 7   0.000000   0.000000  16.456806   4.243569   # C_R
 373 1 7   0.000000   0.000000  15.162811   3.816555   # C_R
 374 1 5   0.000000  20.700400  14.930824   2.700552   # H_
 375 2 8   0.000000   0.000000  12.850365   4.391140   # N_3
 376 1 7   0.000000   0.000000  14.167800   4.812543   # C_R
 377 1 7   0.000000   0.000000  14.593785   6.106548   # C_R
 378 1 7   0.000000   0.000000  15.887781   6.532563   # C_R
 379 1 7   0.000000   0.000000  16.883792   5.537574   # C_R
 380 2 8   0.000000   0.000000  18.200948   5.959036   # N_3
 381 1 5   0.000000   0.000000  16.119768   7.648566   # H_
 382 1 9   0.000000   0.000000  13.878760   8.377540   # O_1
 383 1 6   0.000000   0.000000  13.529773   7.170536   # C_2
 384 1 9   0.000000   0.000000  12.322777   6.821523   # O_1
 385 2 5   0.000000   0.000000  12.574583   3.429183   # H_
 386 2 5   0.000000   0.000000  12.172245   5.169064   # H_
 387 2 5   0.000000   0.000000  18.879059   5.181109   # H_
 388 2 5   0.000000   0.000000  18.476744   6.920985   # H_
 389 1 6   0.000000   0.000000   7.170619  13.529781   # C_2
 390 1 9   0.000000   0.000000   8.377615  13.878795   # O_1
 391 1 9   0.000000  20.700400   6.821632  12.322777   # O_1
 392 1 7   0.000000   0.000000   6.106606  14.593769   # C_R
 393 1 7   0.000000   0.000000   4.812611  14.166755   # C_R
 394 1 5   0.000000  20.700400   4.580624  13.050752   # H_
 395 2 8   0.000000   0.000000   2.500165  14.741340   # N_3
 396 1 7   0.000000   0.000000   3.817600  15.162743   # C_R
 397 1 7   0.000000   0.000000   4.243585  16.456748   # C_R
 398 1 7   0.000000   0.000000   5.537581  16.882763   # C_R
 399 1 7   0.000000   0.000000   6.533592  15.887774   # C_R
 400 2 8   0.000000   0.000000   7.850748  16.309236   # N_3
 401 1 5   0.000000   0.000000   5.769568  17.998766   # H_
 402 1 9   0.000000   0.000000   3.528560  18.727740   # O_1
 403 1 6   0.000000   0.000000   3.179573  17.520736   # C_2
 404 1 9   0.000000   0.000000   1.972577  17.171723   # O_1
 405 2 5   0.000000   0.000000   2.224383  13.779383   # H_
 406 2 5   0.000000   0.000000   1.822045  15.519264   # H_
 407 2 5   0.000000   0.000000   8.528859  15.531309   # H_
 408 2 5   0.000000   0.000000   8.126544  17.271185   # H_
 409 1 6   0.000000  10.350200  17.520819  13.529781   # C_2
 410 1 9   0.000000  10.350200  18.727815  13.878795   # O_1
 411 1 9   0.000000  10.350200  17.171832  12.322777   # O_1
 412 1 7   0.000000  10.350200  16.456806  14.593769   # C_R
 413 1 7   0.000000  10.350200  15.162811  14.166755   # C_R
 414 1 5   0.000000  10.350200  14.930824  13.050752   # H_
 415 2 8   0.000000  10.350200  12.850365  14.741340   # N_3
 416 1 7   0.000000  10.350200  14.167800  15.162743   # C_R
 417 1 7   0.000000  10.350200  14.593785  16.456748   # C_R
 418 1 7   0.000000  10.350200  15.887781  16.882763   # C_R
 419 1 7   0.000000  10.350200  16.883792  15.887774   # C_R
 420 2 8   0.000000  10.350200  18.200948  16.309236   # N_3
 421 1 5   0.000000  10.350200  16.119768  17.998766   # H_
 422 1 9   0.000000  10.350200  13.878760  18.727740   # O_1
 423 1 6   0.000000  10.350200  13.529773  17.520736   # C_2
 424 1 9   0.000000  10.350200  12.322777  17.171723   # O_1
 425 2 5   0.000000  10.350200  12.574583  13.779383   # H_
 426 2 5   0.000000  10.350200  12.172245  15.519264   # H_
 427 2 5   0.000000  10.350200  18.879059  15.531309   # H_
 428 2 5   0.000000  10.350200  18.476744  17.271185   # H_
 429 1 6   0.000000  10.350200   7.170619   3.179581   # C_2
 430 1 9   0.000000  10.350200   8.377615   3.528595   # O_1
 431 1 9   0.000000  10.350200   6.821632   1.972577   # O_1
 432 1 7   0.000000  10.350200   6.106606   4.243569   # C_R
 433 1 7   0.000000  10.350200   4.812611   3.816555   # C_R
 434 1 5   0.000000  10.350200   4.580624   2.700552   # H_
 435 2 8   0.000000  10.350200   2.500165   4.391140   # N_3
 436 1 7   0.000000  10.350200   3.817600   4.812543   # C_R
 437 1 7   0.000000  10.350200   4.243585   6.106548   # C_R
 438 1 7   0.000000  10.350200   5.537581   6.532563   # C_R
 439 1 7   0.000000  10.350200   6.533592   5.537574   # C_R
 440 2 8   0.000000  10.350200   7.850748   5.959036   # N_3
 441 1 5   0.000000  10.350200   5.769568   7.648566   # H_
 442 1 9   0.000000  10.350200   3.528560   8.377540   # O_1
 443 1 6   0.000000  10.350200   3.179573   7.170536   # C_2
 444 1 9   0.000000  10.350200   1.972577   6.821523   # O_1
 445 2 5   0.000000  10.350200   2.224383   3.429183   # H_
 446 2 5   0.000000  10.350200   1.822045   5.169064   # H_
 447 2 5   0.000000  10.350200   8.528859   5.181109   # H_
 448 2 5   0.000000  10.350200   8.126544   6.920985   # H_
 449 1 6   0.000000   0.000000  17.520819  17.520819   # C_2
 450 1 9   0.000000  20.700400  18.727815  17.171805   # O_1
 451 1 9   0.000000   0.000000  17.171832  18.727823   # O_1
 452 1 7   0.000000  20.700400  16.456806  16.456831   # C_R
 453 1 7   0.000000   0.000000  15.162811  16.883845   # C_R
 454 1 5   0.000000   0.000000  14.930824  17.999848   # H_
 455 2 8   0.000000   0.000000  12.850365  16.309260   # N_3
 456 1 7   0.000000   0.000000  14.167800  15.887857   # C_R
 457 1 7   0.000000   0.000000  14.593785  14.593852   # C_R
 458 1 7   0.000000  20.700400  15.887781  14.167837   # C_R
 459 1 7   0.000000   0.000000  16.883792  15.162826   # C_R
 460 2 8   0.000000  20.700400  18.200948  14.741364   # N_3
 461 1 5   0.000000  20.700400  16.119768  13.051834   # H_
 462 1 9   0.000000   0.000000  13.878760  12.322860   # O_1
 463 1 6   0.000000   0.000000  13.529773  13.529864   # C_2
 464 1 9   0.000000   0.000000  12.322777  13.878877   # O_1
 465 2 5   0.000000   0.000000  12.574583  17.271217   # H_
 466 2 5   0.000000   0.000000  12.172245  15.531336   # H_
 467 2 5   0.000000   0.000000  18.879059  15.519291   # H_
 468 2 5   0.000000   0.000000  18.476744  13.779415   # H_
 469 1 6   0.000000   0.000000   7.170619   7.170619   # C_2
 470 1 9   0.000000   0.000000   8.377615   6.821605   # O_1
 471 1 9   0.000000   0.000000   6.821632   8.377623   # O_1
 472 1 7   0.000000  20.700400   6.106606   6.106631   # C_R
 473 1 7   0.000000   0.000000   4.812611   6.533645   # C_R
 474 1 5   0.000000  20.700400   4.580624   7.649648   # H_
 475 2 8   0.000000  20.700400   2.500165   5.959060   # N_3