 (written by mofun)

920 atoms
264 bonds
504 angles
648 dihedrals
0 impropers

10 atom types
4 bond types
7 angle types
10 dihedral types
   0.000000  26.896000 xlo xhi
   0.000000  26.896000 ylo yhi
   0.000000  26.896000 zlo zhi

Masses

 1 91.2240   # Zr3+4
 2 15.9994   # O_3
 3 12.0107   # C_3
 4 1.0079   # H_
 5 1.0079   # H_
 6 12.0107   # C_2
 7 12.0107   # C_3
 8 12.0107   # C_R
 9 15.9994   # O_1
 10 15.9994   # O_3

Pair Coeffs

 1   0.069000   2.783168 # Zr3+4
 2   0.060000   3.118146 # O_3
 3   0.105000   3.430851 # C_3
 4   0.044000   2.571134 # H_
 5 0.044000 2.571134   # H_
 6 0.105000 3.430851   # C_2
 7 0.105000 3.430851   # C_3
 8 0.105000 3.430851   # C_R
 9 0.060000 3.118146   # O_1
 10 0.060000 3.118146   # O_3

Bond Coeffs

 1 572.510195 1.366311   # C_R O_3
 2 539.248552 1.393845   # C_3 O_3
 3 349.795899 1.514000   # C_3 C_3
 4 331.069389 1.109401   # C_3 H_

Angle Coeffs

 1 cosine/periodic  271.563462  -1  3   # C_R C_R O_3
 2 fourier  320.948910  0.300235  0.267331  0.266745   # C_3 O_3 C_R
 3 fourier  290.032745  0.343737  0.374972  0.281246   # C_3 C_3 O_3
 4 fourier  165.777838  0.343737  0.374972  0.281246   # H_ C_3 O_3
 5 fourier  117.318683  0.343737  0.374972  0.281246   # C_3 C_3 H_
 6 fourier  75.498766  0.343737  0.374972  0.281246   # H_ C_3 H_
 7 fourier  214.211821  0.343737  0.374972  0.281246   # C_3 C_3 C_3

Dihedral Coeffs

 1 harmonic 3.368555 -1 2   # C_R C_R C_R O_3 M=4
 2 harmonic 3.368555 -1 2   # H_ C_R C_R O_3 M=4
 3 harmonic 3.368555 -1 2   # C_2 C_R C_R O_3 M=4
 4 harmonic 2.500000 1 2   # C_3 O_3 C_R C_R M=2
 5 harmonic 0.032550 1 3   # C_3 C_3 O_3 C_R M=3
 6 harmonic 0.032550 1 3   # C_R O_3 C_3 H_ M=3
 7 harmonic 0.117722 1 3   # H_ C_3 C_3 O_3 M=9
 8 harmonic 0.117722 1 3   # C_3 C_3 C_3 O_3 M=9
 9 harmonic 0.117722 1 3   # H_ C_3 C_3 H_ M=9
 10 harmonic 0.117722 1 3   # C_3 C_3 C_3 H_ M=9

Atoms

 1 1 1   0.000000   2.475508   0.000000   0.000000   # Zr3+4
 2 1 1   0.000000  24.420492   0.000000   0.000000   # Zr3+4
 3 1 1   0.000000   0.000000   2.475508   0.000000   # Zr3+4
 4 1 1   0.000000   0.000000  24.420492   0.000000   # Zr3+4
 5 1 1   0.000000   0.000000   0.000000   2.475508   # Zr3+4
 6 1 1   0.000000   0.000000   0.000000  24.420492   # Zr3+4
 7 1 1   0.000000   2.475508  13.448000  13.448000   # Zr3+4
 8 1 1   0.000000  24.420492  13.448000  13.448000   # Zr3+4
 9 1 1   0.000000   0.000000  15.923508  13.448000   # Zr3+4
 10 1 1   0.000000   0.000000  10.972492  13.448000   # Zr3+4
 11 1 1   0.000000   0.000000  13.448000  15.923508   # Zr3+4
 12 1 1   0.000000   0.000000  13.448000  10.972492   # Zr3+4
 13 1 1   0.000000  15.923508   0.000000  13.448000   # Zr3+4
 14 1 1   0.000000  10.972492   0.000000  13.448000   # Zr3+4
 15 1 1   0.000000  13.448000   2.475508  13.448000   # Zr3+4
 16 1 1   0.000000  13.448000  24.420492  13.448000   # Zr3+4
 17 1 1   0.000000  13.448000   0.000000  15.923508   # Zr3+4
 18 1 1   0.000000  13.448000   0.000000  10.972492   # Zr3+4
 19 1 1   0.000000  15.923508  13.448000   0.000000   # Zr3+4
 20 1 1   0.000000  10.972492  13.448000   0.000000   # Zr3+4
 21 1 1   0.000000  13.448000  15.923508   0.000000   # Zr3+4
 22 1 1   0.000000  13.448000  10.972492   0.000000   # Zr3+4
 23 1 1   0.000000  13.448000  13.448000   2.475508   # Zr3+4
 24 1 1   0.000000  13.448000  13.448000  24.420492   # Zr3+4
 25 1 2   0.000000   1.221078   1.221078   1.221078   # O_3
 26 1 2   0.000000  25.674922  25.674922   1.221078   # O_3
 27 1 2   0.000000  25.674922   1.221078  25.674922   # O_3
 28 1 2   0.000000   1.221078  25.674922  25.674922   # O_3
 29 1 2   0.000000   1.221078   1.221078  25.674922   # O_3
 30 1 2   0.000000  25.674922  25.674922  25.674922   # O_3
 31 1 2   0.000000   1.221078  25.674922   1.221078   # O_3
 32 1 2   0.000000  25.674922   1.221078   1.221078   # O_3
 33 1 2   0.000000   1.221078  14.669078  14.669078   # O_3
 34 1 2   0.000000  25.674922  12.226922  14.669078   # O_3
 35 1 2   0.000000  25.674922  14.669078  12.226922   # O_3
 36 1 2   0.000000   1.221078  12.226922  12.226922   # O_3
 37 1 2   0.000000   1.221078  14.669078  12.226922   # O_3
 38 1 2   0.000000  25.674922  12.226922  12.226922   # O_3
 39 1 2   0.000000   1.221078  12.226922  14.669078   # O_3
 40 1 2   0.000000  25.674922  14.669078  14.669078   # O_3
 41 1 2   0.000000  14.669078   1.221078  14.669078   # O_3
 42 1 2   0.000000  12.226922  25.674922  14.669078   # O_3
 43 1 2   0.000000  12.226922   1.221078  12.226922   # O_3
 44 1 2   0.000000  14.669078  25.674922  12.226922   # O_3
 45 1 2   0.000000  14.669078   1.221078  12.226922   # O_3
 46 1 2   0.000000  12.226922  25.674922  12.226922   # O_3
 47 1 2   0.000000  14.669078  25.674922  14.669078   # O_3
 48 1 2   0.000000  12.226922   1.221078  14.669078   # O_3
 49 1 2   0.000000  14.669078  14.669078   1.221078   # O_3
 50 1 2   0.000000  12.226922  12.226922   1.221078   # O_3
 51 1 2   0.000000  12.226922  14.669078  25.674922   # O_3
 52 1 2   0.000000  14.669078  12.226922  25.674922   # O_3
 53 1 2   0.000000  14.669078  14.669078  25.674922   # O_3
 54 1 2   0.000000  12.226922  12.226922  25.674922   # O_3
 55 1 2   0.000000  14.669078  12.226922   1.221078   # O_3
 56 1 2   0.000000  12.226922  14.669078   1.221078   # O_3
 57 1 9   0.000000   3.566410   0.000000   1.933822   # O_1
 58 1 6   0.000000   3.152211   0.000000   3.152223   # C_2
 59 1 9   0.000000   1.933811  26.896000   3.566424   # O_1
 60 1 8   0.000000   4.209211   0.000000   4.209222   # C_R
 61 1 8   0.000000   5.535211   0.000000   3.891921   # C_R
 62 1 8   0.000000   3.891912   0.000000   5.535222   # C_R
 63 1 8   0.000000   6.508812   0.000000   4.827820   # C_R
 64 1 5   0.000000   5.780010  26.896000   2.996221   # H_
 65 1 8   0.000000   4.827813  26.896000   6.508821   # C_R
 66 1 5   0.000000   2.996212  26.896000   5.780023   # H_
 67 1 8   0.000000   6.204913   0.000000   6.204920   # C_R
 68 1 8   0.000000   7.243114  26.896000   7.243120   # C_R
 69 1 5   0.000000   7.399112   0.000000   4.558920   # H_
 70 1 8   0.000000   8.620213   0.000000   6.939219   # C_R
 71 1 5   0.000000   4.558914   0.000000   7.399122   # H_
 72 1 8   0.000000   6.939215   0.000000   8.620220   # C_R
 73 1 8   0.000000   9.556114   0.000000   7.912818   # C_R
 74 1 5   0.000000   8.889113  26.896000   6.048918   # H_
 75 1 8   0.000000   7.912815   0.000000   9.556119   # C_R
 76 1 5   0.000000   6.048915   0.000000   8.889121   # H_
 77 1 8   0.000000   9.238815  26.896000   9.238818   # C_R
 78 1 6   0.000000  10.295816  26.896000  10.295817   # C_2
 79 2 10   0.000000  10.888783  26.895588   7.527186   # O_3
 80 1 5   0.000000   7.668016   0.000000  10.451819   # H_
 81 1 9   0.000000  11.514216   0.000000   9.881616   # O_1
 82 1 9   0.000000   9.881617   0.000000  11.514218   # O_1
 83 2 7   0.000000  11.238151   0.004062   6.144908   # C_3
 84 2 7   0.000000  12.755382   0.002887   5.999825   # C_3
 85 2 5   0.000000  10.840783   0.904851   5.661451   # H_
 86 2 5   0.000000  10.840039  26.001673   5.655809   # H_
 87 2 5   0.000000  13.176441   0.879488   6.506405   # H_
 88 2 7   0.000000  13.160363   0.005542   4.533848   # C_3
 89 2 5   0.000000  13.175490  26.021315   6.503508   # H_
 90 2 5   0.000000  12.773324   0.892422   4.021505   # H_
 91 2 5   0.000000  12.772116  26.016063   4.018717   # H_
 92 2 5   0.000000  14.249897   0.004690   4.436261   # H_
 93 1 9   0.000000  23.329590   0.000000   1.933822   # O_1
 94 1 6   0.000000  23.743789   0.000000   3.152223   # C_2
 95 1 9   0.000000  24.962189   0.000000   3.566424   # O_1
 96 1 8   0.000000  22.686789   0.000000   4.209222   # C_R
 97 1 8   0.000000  21.360789  26.896000   3.891921   # C_R
 98 1 8   0.000000  23.004088   0.000000   5.535222   # C_R
 99 1 8   0.000000  20.387188  26.896000   4.827820   # C_R
 100 1 5   0.000000  21.115990  26.896000   2.996221   # H_
 101 1 8   0.000000  22.068187   0.000000   6.508821   # C_R
 102 1 5   0.000000  23.899788   0.000000   5.780023   # H_
 103 1 8   0.000000  20.691087   0.000000   6.204920   # C_R
 104 1 8   0.000000  19.652886  26.896000   7.243120   # C_R
 105 1 5   0.000000  19.496888  26.896000   4.558920   # H_
 106 1 8   0.000000  18.275787  26.896000   6.939219   # C_R
 107 1 5   0.000000  22.337086   0.000000   7.399122   # H_
 108 1 8   0.000000  19.956785   0.000000   8.620220   # C_R
 109 1 8   0.000000  17.339886  26.896000   7.912818   # C_R
 110 1 5   0.000000  18.006887  26.896000   6.048918   # H_
 111 1 8   0.000000  18.983185   0.000000   9.556119   # C_R
 112 1 5   0.000000  20.847085   0.000000   8.889121   # H_
 113 1 8   0.000000  17.657185  26.896000   9.238818   # C_R
 114 1 6   0.000000  16.600184  26.896000  10.295817   # C_2
 115 2 10   0.000000  16.007217   0.000412   7.527186   # O_3
 116 1 5   0.000000  19.227984   0.000000  10.451819   # H_
 117 1 9   0.000000  15.381784  26.896000   9.881616   # O_1
 118 1 9   0.000000  17.014383  26.896000  11.514218   # O_1
 119 2 7   0.000000  15.657849  26.891938   6.144908   # C_3
 120 2 7   0.000000  14.140618  26.893113   5.999825   # C_3
 121 2 5   0.000000  16.055217  25.991149   5.661451   # H_
 122 2 5   0.000000  16.055961   0.894327   5.655809   # H_
 123 2 5   0.000000  13.719559  26.016512   6.506405   # H_
 124 2 7   0.000000  13.735637  26.890458   4.533848   # C_3
 125 2 5   0.000000  13.720510   0.874685   6.503508   # H_
 126 2 5   0.000000  14.122676  26.003578   4.021505   # H_
 127 2 5   0.000000  14.123884   0.879937   4.018717   # H_
 128 2 5   0.000000  12.646103  26.891310   4.436261   # H_
 129 1 9   0.000000  23.329590   0.000000  24.962178   # O_1
 130 1 6   0.000000  23.743789   0.000000  23.743777   # C_2
 131 1 9   0.000000  24.962189   0.000000  23.329576   # O_1
 132 1 8   0.000000  22.686789   0.000000  22.686778   # C_R
 133 1 8   0.000000  21.360789  26.896000  23.004079   # C_R
 134 1 8   0.000000  23.004088   0.000000  21.360778   # C_R
 135 1 8   0.000000  20.387188  26.896000  22.068180   # C_R
 136 1 5   0.000000  21.115990  26.896000  23.899779   # H_
 137 1 8   0.000000  22.068187   0.000000  20.387179   # C_R
 138 1 5   0.000000  23.899788   0.000000  21.115977   # H_
 139 1 8   0.000000  20.691087   0.000000  20.691080   # C_R
 140 1 8   0.000000  19.652886  26.896000  19.652880   # C_R
 141 1 5   0.000000  19.496888  26.896000  22.337080   # H_
 142 1 8   0.000000  18.275787  26.896000  19.956781   # C_R
 143 1 5   0.000000  22.337086   0.000000  19.496878   # H_
 144 1 8   0.000000  19.956785   0.000000  18.275780   # C_R
 145 1 8   0.000000  17.339886  26.896000  18.983182   # C_R
 146 1 5   0.000000  18.006887  26.896000  20.847082   # H_
 147 1 8   0.000000  18.983185   0.000000  17.339881   # C_R
 148 1 5   0.000000  20.847085   0.000000  18.006879   # H_
 149 1 8   0.000000  17.657185  26.896000  17.657182   # C_R
 150 1 6   0.000000  16.600184  26.896000  16.600183   # C_2
 151 2 10   0.000000  16.007217  26.895588  19.368814   # O_3
 152 1 5   0.000000  19.227984   0.000000  16.444181   # H_
 153 1 9   0.000000  15.381784  26.896000  17.014384   # O_1
 154 1 9   0.000000  17.014383  26.896000  15.381782   # O_1
 155 2 7   0.000000  15.657849   0.004062  20.751092   # C_3
 156 2 7   0.000000  14.140618   0.002887  20.896175   # C_3
 157 2 5   0.000000  16.055217   0.904851  21.234549   # H_
 158 2 5   0.000000  16.055961  26.001673  21.240191   # H_
 159 2 5   0.000000  13.719559   0.879488  20.389595   # H_
 160 2 7   0.000000  13.735637   0.005542  22.362152   # C_3
 161 2 5   0.000000  13.720510  26.021315  20.392492   # H_
 162 2 5   0.000000  14.122676   0.892422  22.874495   # H_
 163 2 5   0.000000  14.123884  26.016063  22.877283   # H_
 164 2 5   0.000000  12.646103   0.004690  22.459739   # H_
 165 1 9   0.000000   3.566410   0.000000  24.962178   # O_1
 166 1 6   0.000000   3.152211   0.000000  23.743777   # C_2
 167 1 9   0.000000   1.933811   0.000000  23.329576   # O_1
 168 1 8   0.000000   4.209211   0.000000  22.686778   # C_R
 169 1 8   0.000000   5.535211   0.000000  23.004079   # C_R
 170 1 8   0.000000   3.891912   0.000000  21.360778   # C_R
 171 1 8   0.000000   6.508812   0.000000  22.068180   # C_R
 172 1 5   0.000000   5.780010   0.000000  23.899779   # H_
 173 1 8   0.000000   4.827813   0.000000  20.387179   # C_R
 174 1 5   0.000000   2.996212   0.000000  21.115977   # H_
 175 1 8   0.000000   6.204913   0.000000  20.691080   # C_R
 176 1 8   0.000000   7.243114   0.000000  19.652880   # C_R
 177 1 5   0.000000   7.399112   0.000000  22.337080   # H_
 178 1 8   0.000000   8.620213   0.000000  19.956781   # C_R
 179 1 5   0.000000   4.558914   0.000000  19.496878   # H_
 180 1 8   0.000000   6.939215   0.000000  18.275780   # C_R
 181 1 8   0.000000   9.556114   0.000000  18.983182   # C_R
 182 1 5   0.000000   8.889113   0.000000  20.847082   # H_
 183 1 8   0.000000   7.912815   0.000000  17.339881   # C_R
 184 1 5   0.000000   6.048915   0.000000  18.006879   # H_
 185 1 8   0.000000   9.238815   0.000000  17.657182   # C_R
 186 1 6   0.000000  10.295816   0.000000  16.600183   # C_2
 187 2 10   0.000000  10.888783   0.000412  19.368814   # O_3
 188 1 5   0.000000   7.668016   0.000000  16.444181   # H_
 189 1 9   0.000000  11.514216   0.000000  17.014384   # O_1
 190 1 9   0.000000   9.881617   0.000000  15.381782   # O_1
 191 2 7   0.000000  11.238151  26.891938  20.751092   # C_3
 192 2 7   0.000000  12.755382  26.893113  20.896175   # C_3
 193 2 5   0.000000  10.840783  25.991149  21.234549   # H_
 194 2 5   0.000000  10.840039   0.894327  21.240191   # H_
 195 2 5   0.000000  13.176441  26.016512  20.389595   # H_
 196 2 7   0.000000  13.160363  26.890458  22.362152   # C_3
 197 2 5   0.000000  13.175490   0.874685  20.392492   # H_
 198 2 5   0.000000  12.773324  26.003578  22.874495   # H_
 199 2 5   0.000000  12.772116   0.879937  22.877283   # H_
 200 2 5   0.000000  14.249897  26.891310  22.459739   # H_
 201 1 9   0.000000   1.933822   3.566410   0.000000   # O_1
 202 1 6   0.000000   3.152223   3.152211   0.000000   # C_2
 203 1 9   0.000000   3.566424   1.933811   0.000000   # O_1
 204 1 8   0.000000   4.209222   4.209211   0.000000   # C_R
 205 1 8   0.000000   3.891921   5.535211  26.896000   # C_R
 206 1 8   0.000000   5.535222   3.891912   0.000000   # C_R
 207 1 8   0.000000   4.827820   6.508812  26.896000   # C_R
 208 1 5   0.000000   2.996221   5.780010  26.896000   # H_
 209 1 8   0.000000   6.508821   4.827813   0.000000   # C_R
 210 1 5   0.000000   5.780023   2.996212   0.000000   # H_
 211 1 8   0.000000   6.204920   6.204913   0.000000   # C_R
 212 1 8   0.000000   7.243120   7.243114  26.896000   # C_R
 213 1 5   0.000000   4.558920   7.399112  26.896000   # H_
 214 1 8   0.000000   6.939219   8.620213  26.896000   # C_R
 215 1 5   0.000000   7.399122   4.558914   0.000000   # H_
 216 1 8   0.000000   8.620220   6.939215   0.000000   # C_R
 217 1 8   0.000000   7.912818   9.556114  26.896000   # C_R
 218 1 5   0.000000   6.048918   8.889113  26.896000   # H_
 219 1 8   0.000000   9.556119   7.912815   0.000000   # C_R
 220 1 5   0.000000   8.889121   6.048915   0.000000   # H_
 221 1 8   0.000000   9.238818   9.238815  26.896000   # C_R
 222 1 6   0.000000  10.295817  10.295816  26.896000   # C_2
 223 2 10   0.000000   7.527186  10.888783  26.895588   # O_3
 224 1 5   0.000000  10.451819   7.668016   0.000000   # H_
 225 1 9   0.000000   9.881616  11.514216  26.896000   # O_1
 226 1 9   0.000000  11.514218   9.881617  26.896000   # O_1
 227 2 7   0.000000   6.144908  11.238151   0.004062   # C_3
 228 2 7   0.000000   5.999825  12.755382   0.002887   # C_3
 229 2 5   0.000000   5.661451  10.840783   0.904851   # H_
 230 2 5   0.000000   5.655809  10.840039  26.001673   # H_
 231 2 5   0.000000   6.506405  13.176441   0.879488   # H_
 232 2 7   0.000000   4.533848  13.160363   0.005542   # C_3
 233 2 5   0.000000   6.503508  13.175490  26.021315   # H_
 234 2 5   0.000000   4.021505  12.773324   0.892422   # H_
 235 2 5   0.000000   4.018717  12.772116  26.016063   # H_
 236 2 5   0.000000   4.436261  14.249897   0.004690   # H_
 237 1 9   0.000000   1.933822  23.329590   0.000000   # O_1
 238 1 6   0.000000   3.152223  23.743789   0.000000   # C_2
 239 1 9   0.000000   3.566424  24.962189   0.000000   # O_1
 240 1 8   0.000000   4.209222  22.686789   0.000000   # C_R
 241 1 8   0.000000   3.891921  21.360789   0.000000   # C_R
 242 1 8   0.000000   5.535222  23.004088   0.000000   # C_R
 243 1 8   0.000000   4.827820  20.387188   0.000000   # C_R
 244 1 5   0.000000   2.996221  21.115990   0.000000   # H_
 245 1 8   0.000000   6.508821  22.068187   0.000000   # C_R
 246 1 5   0.000000   5.780023  23.899788   0.000000   # H_
 247 1 8   0.000000   6.204920  20.691087   0.000000   # C_R
 248 1 8   0.000000   7.243120  19.652886   0.000000   # C_R
 249 1 5   0.000000   4.558920  19.496888   0.000000   # H_
 250 1 8   0.000000   6.939219  18.275787   0.000000   # C_R
 251 1 5   0.000000   7.399122  22.337086   0.000000   # H_
 252 1 8   0.000000   8.620220  19.956785   0.000000   # C_R
 253 1 8   0.000000   7.912818  17.339886   0.000000   # C_R
 254 1 5   0.000000   6.048918  18.006887   0.000000   # H_
 255 1 8   0.000000   9.556119  18.983185   0.000000   # C_R
 256 1 5   0.000000   8.889121  20.847085   0.000000   # H_
 257 1 8   0.000000   9.238818  17.657185   0.000000   # C_R
 258 1 6   0.000000  10.295817  16.600184   0.000000   # C_2
 259 2 10   0.000000   7.527186  16.007217   0.000412   # O_3
 260 1 5   0.000000  10.451819  19.227984   0.000000   # H_
 261 1 9   0.000000   9.881616  15.381784   0.000000   # O_1
 262 1 9   0.000000  11.514218  17.014383   0.000000   # O_1
 263 2 7   0.000000   6.144908  15.657849  26.891938   # C_3
 264 2 7   0.000000   5.999825  14.140618  26.893113   # C_3
 265 2 5   0.000000   5.661451  16.055217  25.991149   # H_
 266 2 5   0.000000   5.655809  16.055961   0.894327   # H_
 267 2 5   0.000000   6.506405  13.719559  26.016512   # H_
 268 2 7   0.000000   4.533848  13.735637  26.890458   # C_3
 269 2 5   0.000000   6.503508  13.720510   0.874685   # H_
 270 2 5   0.000000   4.021505  14.122676  26.003578   # H_
 271 2 5   0.000000   4.018717  14.123884   0.879937   # H_
 272 2 5   0.000000   4.436261  12.646103  26.891310   # H_
 273 1 9   0.000000  24.962178  23.329590   0.000000   # O_1
 274 1 6   0.000000  23.743777  23.743789   0.000000   # C_2
 275 1 9   0.000000  23.329576  24.962189   0.000000   # O_1
 276 1 8   0.000000  22.686778  22.686789   0.000000   # C_R
 277 1 8   0.000000  23.004079  21.360789  26.896000   # C_R
 278 1 8   0.000000  21.360778  23.004088   0.000000   # C_R
 279 1 8   0.000000  22.068180  20.387188  26.896000   # C_R
 280 1 5   0.000000  23.899779  21.115990  26.896000   # H_
 281 1 8   0.000000  20.387179  22.068187   0.000000   # C_R
 282 1 5   0.000000  21.115977  23.899788   0.000000   # H_
 283 1 8   0.000000  20.691080  20.691087   0.000000   # C_R
 284 1 8   0.000000  19.652880  19.652886  26.896000   # C_R
 285 1 5   0.000000  22.337080  19.496888  26.896000   # H_
 286 1 8   0.000000  19.956781  18.275787  26.896000   # C_R
 287 1 5   0.000000  19.496878  22.337086   0.000000   # H_
 288 1 8   0.000000  18.275780  19.956785   0.000000   # C_R
 289 1 8   0.000000  18.983182  17.339886  26.896000   # C_R
 290 1 5   0.000000  20.847082  18.006887  26.896000   # H_
 291 1 8   0.000000  17.339881  18.983185   0.000000   # C_R
 292 1 5   0.000000  18.006879  20.847085   0.000000   # H_
 293 1 8   0.000000  17.657182  17.657185  26.896000   # C_R
 294 1 6   0.000000  16.600183  16.600184  26.896000   # C_2
 295 2 10   0.000000  19.368814  16.007217  26.895588   # O_3
 296 1 5   0.000000  16.444181  19.227984   0.000000   # H_
 297 1 9   0.000000  17.014384  15.381784  26.896000   # O_1
 298 1 9   0.000000  15.381782  17.014383   0.000000   # O_1
 299 2 7   0.000000  20.751092  15.657849   0.004062   # C_3
 300 2 7   0.000000  20.896175  14.140618   0.002887   # C_3
 301 2 5   0.000000  21.234549  16.055217   0.904851   # H_
 302 2 5   0.000000  21.240191  16.055961  26.001673   # H_
 303 2 5   0.000000  20.389595  13.719559   0.879488   # H_
 304 2 7   0.000000  22.362152  13.735637   0.005542   # C_3
 305 2 5   0.000000  20.392492  13.720510  26.021315   # H_
 306 2 5   0.000000  22.874495  14.122676   0.892422   # H_
 307 2 5   0.000000  22.877283  14.123884  26.016063   # H_
 308 2 5   0.000000  22.459739  12.646103   0.004690   # H_
 309 1 9   0.000000  24.962178   3.566410   0.000000   # O_1
 310 1 6   0.000000  23.743777   3.152211   0.000000   # C_2
 311 1 9   0.000000  23.329576   1.933811   0.000000   # O_1
 312 1 8   0.000000  22.686778   4.209211   0.000000   # C_R
 313 1 8   0.000000  23.004079   5.535211   0.000000   # C_R
 314 1 8   0.000000  21.360778   3.891912   0.000000   # C_R
 315 1 8   0.000000  22.068180   6.508812   0.000000   # C_R
 316 1 5   0.000000  23.899779   5.780010   0.000000   # H_
 317 1 8   0.000000  20.387179   4.827813   0.000000   # C_R
 318 1 5   0.000000  21.115977   2.996212   0.000000   # H_
 319 1 8   0.000000  20.691080   6.204913   0.000000   # C_R
 320 1 8   0.000000  19.652880   7.243114   0.000000   # C_R
 321 1 5   0.000000  22.337080   7.399112   0.000000   # H_
 322 1 8   0.000000  19.956781   8.620213   0.000000   # C_R
 323 1 5   0.000000  19.496878   4.558914   0.000000   # H_
 324 1 8   0.000000  18.275780   6.939215   0.000000   # C_R
 325 1 8   0.000000  18.983182   9.556114   0.000000   # C_R
 326 1 5   0.000000  20.847082   8.889113   0.000000   # H_
 327 1 8   0.000000  17.339881   7.912815   0.000000   # C_R
 328 1 5   0.000000  18.006879   6.048915   0.000000   # H_
 329 1 8   0.000000  17.657182   9.238815   0.000000   # C_R
 330 1 6   0.000000  16.600183  10.295816   0.000000   # C_2
 331 2 10   0.000000  19.368814  10.888783   0.000412   # O_3
 332 1 5   0.000000  16.444181   7.668016   0.000000   # H_
 333 1 9   0.000000  17.014384  11.514216   0.000000   # O_1
 334 1 9   0.000000  15.381782   9.881617   0.000000   # O_1
 335 2 7   0.000000  20.751092  11.238151  26.891938   # C_3
 336 2 7   0.000000  20.896175  12.755382  26.893113   # C_3
 337 2 5   0.000000  21.234549  10.840783  25.991149   # H_
 338 2 5   0.000000  21.240191  10.840039   0.894327   # H_
 339 2 5   0.000000  20.389595  13.176441  26.016512   # H_
 340 2 7   0.000000  22.362152  13.160363  26.890458   # C_3
 341 2 5   0.000000  20.392492  13.175490   0.874685   # H_
 342 2 5   0.000000  22.874495  12.773324  26.003578   # H_
 343 2 5   0.000000  22.877283  12.772116   0.879937   # H_
 344 2 5   0.000000  22.459739  14.249897  26.891310   # H_
 345 1 9   0.000000   0.000000   1.933822   3.566410   # O_1
 346 1 6   0.000000   0.000000   3.152223   3.152211   # C_2
 347 1 9   0.000000   0.000000   3.566424   1.933811   # O_1
 348 1 8   0.000000   0.000000   4.209222   4.209211   # C_R
 349 1 8   0.000000   0.000000   3.891921   5.535211   # C_R
 350 1 8   0.000000   0.000000   5.535222   3.891912   # C_R
 351 1 8   0.000000   0.000000   4.827820   6.508812   # C_R
 352 1 5   0.000000   0.000000   2.996221   5.780010   # H_
 353 1 8   0.000000   0.000000   6.508821   4.827813   # C_R
 354 1 5   0.000000   0.000000   5.780023   2.996212   # H_
 355 1 8   0.000000   0.000000   6.204920   6.204913   # C_R
 356 1 8   0.000000   0.000000   7.243120   7.243114   # C_R
 357 1 5   0.000000   0.000000   4.558920   7.399112   # H_
 358 1 8   0.000000   0.000000   6.939219   8.620213   # C_R
 359 1 5   0.000000   0.000000   7.399122   4.558914   # H_
 360 1 8   0.000000   0.000000   8.620220   6.939215   # C_R
 361 1 8   0.000000   0.000000   7.912818   9.556114   # C_R
 362 1 5   0.000000   0.000000   6.048918   8.889113   # H_
 363 1 8   0.000000   0.000000   9.556119   7.912815   # C_R
 364 1 5   0.000000   0.000000   8.889121   6.048915   # H_
 365 1 8   0.000000   0.000000   9.238818   9.238815   # C_R
 366 1 6   0.000000   0.000000  10.295817  10.295816   # C_2
 367 2 10   0.000000  26.895588   7.527186  10.888783   # O_3
 368 1 5   0.000000   0.000000  10.451819   7.668016   # H_
 369 1 9   0.000000   0.000000   9.881616  11.514216   # O_1
 370 1 9   0.000000   0.000000  11.514218   9.881617   # O_1
 371 2 7   0.000000   0.004062   6.144908  11.238151   # C_3
 372 2 7   0.000000   0.002887   5.999825  12.755382   # C_3
 373 2 5   0.000000   0.904851   5.661451  10.840783   # H_
 374 2 5   0.000000  26.001673   5.655809  10.840039   # H_
 375 2 5   0.000000   0.879488   6.506405  13.176441   # H_
 376 2 7   0.000000   0.005542   4.533848  13.160363   # C_3
 377 2 5   0.000000  26.021315   6.503508  13.175490   # H_
 378 2 5   0.000000   0.892422   4.021505  12.773324   # H_
 379 2 5   0.000000  26.016063   4.018717  12.772116   # H_
 380 2 5   0.000000   0.004690   4.436261  14.249897   # H_
 381 1 9   0.000000   0.000000   1.933822  23.329590   # O_1
 382 1 6   0.000000   0.000000   3.152223  23.743789   # C_2
 383 1 9   0.000000   0.000000   3.566424  24.962189   # O_1
 384 1 8   0.000000   0.000000   4.209222  22.686789   # C_R
 385 1 8   0.000000   0.000000   3.891921  21.360789   # C_R
 386 1 8   0.000000   0.000000   5.535222  23.004088   # C_R
 387 1 8   0.000000   0.000000   4.827820  20.387188   # C_R
 388 1 5   0.000000   0.000000   2.996221  21.115990   # H_
 389 1 8   0.000000   0.000000   6.508821  22.068187   # C_R
 390 1 5   0.000000   0.000000   5.780023  23.899788   # H_
 391 1 8   0.000000   0.000000   6.204920  20.691087   # C_R
 392 1 8   0.000000   0.000000   7.243120  19.652886   # C_R
 393 1 5   0.000000   0.000000   4.558920  19.496888   # H_
 394 1 8   0.000000   0.000000   6.939219  18.275787   # C_R
 395 1 5   0.000000   0.000000   7.399122  22.337086   # H_
 396 1 8   0.000000   0.000000   8.620220  19.956785   # C_R
 397 1 8   0.000000   0.000000   7.912818  17.339886   # C_R
 398 1 5   0.000000   0.000000   6.048918  18.006887   # H_
 399 1 8   0.000000   0.000000   9.556119  18.983185   # C_R
 400 1 5   0.000000   0.000000   8.889121  20.847085   # H_
 401 1 8   0.000000   0.000000   9.238818  17.657185   # C_R
 402 1 6   0.000000   0.000000  10.295817  16.600184   # C_2
 403 2 10   0.000000   0.000412   7.527186  16.007217   # O_3
 404 1 5   0.000000   0.000000  10.451819  19.227984   # H_
 405 1 9   0.000000   0.000000   9.881616  15.381784   # O_1
 406 1 9   0.000000   0.000000  11.514218  17.014383   # O_1
 407 2 7   0.000000  26.891938   6.144908  15.657849   # C_3
 408 2 7   0.000000  26.893113   5.999825  14.140618   # C_3
 409 2 5   0.000000  25.991149   5.661451  16.055217   # H_
 410 2 5   0.000000   0.894327   5.655809  16.055961   # H_
 411 2 5   0.000000  26.016512   6.506405  13.719559   # H_
 412 2 7   0.000000  26.890458   4.533848  13.735637   # C_3
 413 2 5   0.000000   0.874685   6.503508  13.720510   # H_
 414 2 5   0.000000  26.003578   4.021505  14.122676   # H_
 415 2 5   0.000000   0.879937   4.018717  14.123884   # H_
 416 2 5   0.000000  26.891310   4.436261  12.646103   # H_
 417 1 9   0.000000   0.000000  24.962178  23.329590   # O_1
 418 1 6   0.000000   0.000000  23.743777  23.743789   # C_2
 419 1 9   0.000000   0.000000  23.329576  24.962189   # O_1
 420 1 8   0.000000   0.000000  22.686778  22.686789   # C_R
 421 1 8   0.000000  26.896000  23.004079  21.360789   # C_R
 422 1 8   0.000000   0.000000  21.360778  23.004088   # C_R
 423 1 8   0.000000  26.896000  22.068180  20.387188   # C_R
 424 1 5   0.000000  26.896000  23.899779  21.115990   # H_
 425 1 8   0.000000   0.000000  20.387179  22.068187   # C_R
 426 1 5   0.000000   0.000000  21.115977  23.899788   # H_
 427 1 8   0.000000   0.000000  20.691080  20.691087   # C_R
 428 1 8   0.000000  26.896000  19.652880  19.652886   # C_R
 429 1 5   0.000000  26.896000  22.337080  19.496888   # H_
 430 1 8   0.000000  26.896000  19.956781  18.275787   # C_R
 431 1 5   0.000000   0.000000  19.496878  22.337086   # H_
 432 1 8   0.000000   0.000000  18.275780  19.956785   # C_R
 433 1 8   0.000000  26.896000  18.983182  17.339886   # C_R
 434 1 5   0.000000  26.896000  20.847082  18.006887   # H_
 435 1 8   0.000000   0.000000  17.339881  18.983185   # C_R
 436 1 5   0.000000   0.000000  18.006879  20.847085   # H_
 437 1 8   0.000000  26.896000  17.657182  17.657185   # C_R
 438 1 6   0.000000  26.896000  16.600183  16.600184   # C_2
 439 2 10   0.000000  26.895588  19.368814  16.007217   # O_3
 440 1 5   0.000000   0.000000  16.444181  19.227984   # H_
 441 1 9   0.000000  26.896000  17.014384  15.381784   # O_1
 442 1 9   0.000000   0.000000  15.381782  17.014383   # O_1
 443 2 7   0.000000   0.004062  20.751092  15.657849   # C_3
 444 2 7   0.000000   0.002887  20.896175  14.140618   # C_3
 445 2 5   0.000000   0.904851  21.234549  16.055217   # H_
 446 2 5   0.000000  26.001673  21.240191  16.055961   # H_
 447 2 5   0.000000   0.879488  20.389595  13.719559   # H_
 448 2 7   0.000000   0.005542  22.362152  13.735637   # C_3
 449 2 5   0.000000  26.021315  20.392492  13.720510   # H_
 450 2 5   0.000000   0.892422  22.874495  14.122676   # H_
 451 2 5   0.000000  26.016063  22.877283  14.123884   # H_
 452 2 5   0.000000   0.004690  22.459739  12.646103   # H_
 453 1 9   0.000000   0.000000  24.962178   3.566410   # O_1
 454 1 6   0.000000  26.896000  23.743777   3.152211   # C_2
 455 1 9   0.000000  26.896000  23.329576   1.933811   # O_1
 456 1 8   0.000000  26.896000  22.686778   4.209211   # C_R
 457 1 8   0.000000   0.000000  23.004079   5.535211   # C_R
 458 1 8   0.000000  26.896000  21.360778   3.891912   # C_R
 459 1 8   0.000000   0.000000  22.068180   6.508812   # C_R
 460 1 5   0.000000   0.000000  23.899779   5.780010   # H_
 461 1 8   0.000000  26.896000  20.387179   4.827813   # C_R
 462 1 5   0.000000  26.896000  21.115977   2.996212   # H_
 463 1 8   0.000000  26.896000  20.691080   6.204913   # C_R
 464 1 8   0.000000   0.000000  19.652880   7.243114   # C_R