 (written by mofun)

1040 atoms
408 bonds
840 angles
1416 dihedrals
0 impropers

10 atom types
5 bond types
9 angle types
13 dihedral types
   0.000000  26.896000 xlo xhi
   0.000000  26.896000 ylo yhi
   0.000000  26.896000 zlo zhi

Masses

 1 91.2240   # Zr3+4
 2 15.9994   # O_3
 3 12.0107   # C_3
 4 1.0079   # H_
 5 1.0079   # H_
 6 12.0107   # C_2
 7 12.0107   # C_3
 8 12.0107   # C_R
 9 14.0067   # N_3
 10 15.9994   # O_1

Pair Coeffs

 1   0.069000   2.783168 # Zr3+4
 2   0.060000   3.118146 # O_3
 3   0.105000   3.430851 # C_3
 4   0.044000   2.571134 # H_
 5 0.044000 2.571134   # H_
 6 0.105000 3.430851   # C_2
 7 0.105000 3.430851   # C_3
 8 0.105000 3.430851   # C_R
 9 0.069000 3.260689   # N_3
 10 0.060000 3.118146   # O_1

Bond Coeffs

 1 560.312976 1.423192   # C_R N_3
 2 527.945261 1.044419   # H_ N_3
 3 528.634538 1.451071   # C_3 N_3
 4 349.795899 1.514000   # C_3 C_3
 5 331.069389 1.109401   # C_3 H_

Angle Coeffs

 1 cosine/periodic  282.369526  -1  3   # C_R C_R N_3
 2 fourier  150.574599  0.317506  0.313225  0.272502   # C_R N_3 H_
 3 fourier  268.482172  0.317506  0.313225  0.272502   # C_3 N_3 C_R
 4 fourier  144.695053  0.317506  0.313225  0.272502   # C_3 N_3 H_
 5 fourier  303.297032  0.343737  0.374972  0.281246   # C_3 C_3 N_3
 6 fourier  169.780468  0.343737  0.374972  0.281246   # H_ C_3 N_3
 7 fourier  214.211821  0.343737  0.374972  0.281246   # C_3 C_3 C_3
 8 fourier  117.318683  0.343737  0.374972  0.281246   # C_3 C_3 H_
 9 fourier  75.498766  0.343737  0.374972  0.281246   # H_ C_3 H_

Dihedral Coeffs

 1 harmonic 3.368555 -1 2   # C_R C_R C_R N_3 M=4
 2 harmonic 3.368555 -1 2   # H_ C_R C_R N_3 M=4
 3 harmonic 0.125000 -1 6   # C_R C_R N_3 H_ M=4
 4 harmonic 0.125000 -1 6   # C_3 N_3 C_R C_R M=4
 5 harmonic 0.081375 1 3   # C_3 C_3 N_3 C_R M=6
 6 harmonic 0.081375 1 3   # C_R N_3 C_3 H_ M=6
 7 harmonic 0.081375 1 3   # C_3 C_3 N_3 H_ M=6
 8 harmonic 0.081375 1 3   # H_ C_3 N_3 H_ M=6
 9 harmonic 0.117722 1 3   # H_ C_3 C_3 N_3 M=9
 10 harmonic 0.117722 1 3   # C_3 C_3 C_3 N_3 M=9
 11 harmonic 0.117722 1 3   # C_3 C_3 C_3 H_ M=9
 12 harmonic 0.117722 1 3   # C_3 C_3 C_3 C_3 M=9
 13 harmonic 0.117722 1 3   # H_ C_3 C_3 H_ M=9

Atoms

 1 1 1   0.000000   2.475508   0.000000   0.000000   # Zr3+4
 2 1 1   0.000000  24.420492   0.000000   0.000000   # Zr3+4
 3 1 1   0.000000   0.000000   2.475508   0.000000   # Zr3+4
 4 1 1   0.000000   0.000000  24.420492   0.000000   # Zr3+4
 5 1 1   0.000000   0.000000   0.000000   2.475508   # Zr3+4
 6 1 1   0.000000   0.000000   0.000000  24.420492   # Zr3+4
 7 1 1   0.000000   2.475508  13.448000  13.448000   # Zr3+4
 8 1 1   0.000000  24.420492  13.448000  13.448000   # Zr3+4
 9 1 1   0.000000   0.000000  15.923508  13.448000   # Zr3+4
 10 1 1   0.000000   0.000000  10.972492  13.448000   # Zr3+4
 11 1 1   0.000000   0.000000  13.448000  15.923508   # Zr3+4
 12 1 1   0.000000   0.000000  13.448000  10.972492   # Zr3+4
 13 1 1   0.000000  15.923508   0.000000  13.448000   # Zr3+4
 14 1 1   0.000000  10.972492   0.000000  13.448000   # Zr3+4
 15 1 1   0.000000  13.448000   2.475508  13.448000   # Zr3+4
 16 1 1   0.000000  13.448000  24.420492  13.448000   # Zr3+4
 17 1 1   0.000000  13.448000   0.000000  15.923508   # Zr3+4
 18 1 1   0.000000  13.448000   0.000000  10.972492   # Zr3+4
 19 1 1   0.000000  15.923508  13.448000   0.000000   # Zr3+4
 20 1 1   0.000000  10.972492  13.448000   0.000000   # Zr3+4
 21 1 1   0.000000  13.448000  15.923508   0.000000   # Zr3+4
 22 1 1   0.000000  13.448000  10.972492   0.000000   # Zr3+4
 23 1 1   0.000000  13.448000  13.448000   2.475508   # Zr3+4
 24 1 1   0.000000  13.448000  13.448000  24.420492   # Zr3+4
 25 1 2   0.000000   1.221078   1.221078   1.221078   # O_3
 26 1 2   0.000000  25.674922  25.674922   1.221078   # O_3
 27 1 2   0.000000  25.674922   1.221078  25.674922   # O_3
 28 1 2   0.000000   1.221078  25.674922  25.674922   # O_3
 29 1 2   0.000000   1.221078   1.221078  25.674922   # O_3
 30 1 2   0.000000  25.674922  25.674922  25.674922   # O_3
 31 1 2   0.000000   1.221078  25.674922   1.221078   # O_3
 32 1 2   0.000000  25.674922   1.221078   1.221078   # O_3
 33 1 2   0.000000   1.221078  14.669078  14.669078   # O_3
 34 1 2   0.000000  25.674922  12.226922  14.669078   # O_3
 35 1 2   0.000000  25.674922  14.669078  12.226922   # O_3
 36 1 2   0.000000   1.221078  12.226922  12.226922   # O_3
 37 1 2   0.000000   1.221078  14.669078  12.226922   # O_3
 38 1 2   0.000000  25.674922  12.226922  12.226922   # O_3
 39 1 2   0.000000   1.221078  12.226922  14.669078   # O_3
 40 1 2   0.000000  25.674922  14.669078  14.669078   # O_3
 41 1 2   0.000000  14.669078   1.221078  14.669078   # O_3
 42 1 2   0.000000  12.226922  25.674922  14.669078   # O_3
 43 1 2   0.000000  12.226922   1.221078  12.226922   # O_3
 44 1 2   0.000000  14.669078  25.674922  12.226922   # O_3
 45 1 2   0.000000  14.669078   1.221078  12.226922   # O_3
 46 1 2   0.000000  12.226922  25.674922  12.226922   # O_3
 47 1 2   0.000000  14.669078  25.674922  14.669078   # O_3
 48 1 2   0.000000  12.226922   1.221078  14.669078   # O_3
 49 1 2   0.000000  14.669078  14.669078   1.221078   # O_3
 50 1 2   0.000000  12.226922  12.226922   1.221078   # O_3
 51 1 2   0.000000  12.226922  14.669078  25.674922   # O_3
 52 1 2   0.000000  14.669078  12.226922  25.674922   # O_3
 53 1 2   0.000000  14.669078  14.669078  25.674922   # O_3
 54 1 2   0.000000  12.226922  12.226922  25.674922   # O_3
 55 1 2   0.000000  14.669078  12.226922   1.221078   # O_3
 56 1 2   0.000000  12.226922  14.669078   1.221078   # O_3
 57 1 10   0.000000   3.566410   0.000000   1.933822   # O_1
 58 1 6   0.000000   3.152211   0.000000   3.152223   # C_2
 59 1 10   0.000000   1.933811  26.896000   3.566424   # O_1
 60 1 8   0.000000   4.209211   0.000000   4.209222   # C_R
 61 1 8   0.000000   5.535211   0.000000   3.891921   # C_R
 62 1 8   0.000000   3.891912   0.000000   5.535222   # C_R
 63 1 8   0.000000   6.508812   0.000000   4.827820   # C_R
 64 1 5   0.000000   5.780010  26.896000   2.996221   # H_
 65 1 8   0.000000   4.827813  26.896000   6.508821   # C_R
 66 1 5   0.000000   2.996212  26.896000   5.780023   # H_
 67 1 8   0.000000   6.204913   0.000000   6.204920   # C_R
 68 1 8   0.000000   7.243114  26.896000   7.243120   # C_R
 69 1 5   0.000000   7.399112   0.000000   4.558920   # H_
 70 1 8   0.000000   8.620213   0.000000   6.939219   # C_R
 71 1 5   0.000000   4.558914   0.000000   7.399122   # H_
 72 1 8   0.000000   6.939215   0.000000   8.620220   # C_R
 73 1 8   0.000000   9.556114   0.000000   7.912818   # C_R
 74 2 9   0.000000   9.112570   0.272216   5.638919   # N_3
 75 1 8   0.000000   7.912815   0.000000   9.556119   # C_R
 76 1 5   0.000000   6.048915   0.000000   8.889121   # H_
 77 1 8   0.000000   9.238815  26.896000   9.238818   # C_R
 78 1 6   0.000000  10.295816  26.896000  10.295817   # C_2
 79 1 5   0.000000  10.451814   0.000000   7.668017   # H_
 80 1 5   0.000000   7.668016   0.000000  10.451819   # H_
 81 1 10   0.000000  11.514216   0.000000   9.881616   # O_1
 82 1 10   0.000000   9.881617   0.000000  11.514218   # O_1
 83 2 5   0.000000   8.996282   1.275631   5.488799   # H_
 84 2 7   0.000000  10.361812  26.689103   5.049361   # C_3
 85 2 7   0.000000  10.718427  25.228511   5.321294   # C_3
 86 2 5   0.000000  10.453114  24.898565   6.329793   # H_
 87 2 7   0.000000  12.232403  25.206415   5.158277   # C_3
 88 2 5   0.000000  10.223181  24.550028   4.619114   # H_
 89 2 7   0.000000  12.676314  26.518463   5.789538   # C_3
 90 2 5   0.000000  12.499091  25.189333   4.094850   # H_
 91 2 5   0.000000  12.690250  24.337942   5.640304   # H_
 92 2 7   0.000000  11.600521   0.631037   5.390180   # C_3
 93 2 5   0.000000  13.672181  26.823696   5.454687   # H_
 94 2 5   0.000000  12.707243  26.416372   6.880503   # H_
 95 2 5   0.000000  11.924997   1.178190   4.496186   # H_
 96 2 5   0.000000  11.439692   1.380689   6.170890   # H_
 97 2 5   0.000000  10.218738  26.781677   3.963646   # H_
 98 1 10   0.000000  23.329590   0.000000   1.933822   # O_1
 99 1 6   0.000000  23.743789   0.000000   3.152223   # C_2
 100 1 10   0.000000  24.962189   0.000000   3.566424   # O_1
 101 1 8   0.000000  22.686789   0.000000   4.209222   # C_R
 102 1 8   0.000000  21.360789  26.896000   3.891921   # C_R
 103 1 8   0.000000  23.004088   0.000000   5.535222   # C_R
 104 1 8   0.000000  20.387188  26.896000   4.827820   # C_R
 105 1 5   0.000000  21.115990  26.896000   2.996221   # H_
 106 1 8   0.000000  22.068187   0.000000   6.508821   # C_R
 107 1 5   0.000000  23.899788   0.000000   5.780023   # H_
 108 1 8   0.000000  20.691087   0.000000   6.204920   # C_R
 109 1 8   0.000000  19.652886  26.896000   7.243120   # C_R
 110 1 5   0.000000  19.496888  26.896000   4.558920   # H_
 111 1 8   0.000000  18.275787  26.896000   6.939219   # C_R
 112 1 5   0.000000  22.337086   0.000000   7.399122   # H_
 113 1 8   0.000000  19.956785   0.000000   8.620220   # C_R
 114 1 8   0.000000  17.339886  26.896000   7.912818   # C_R
 115 2 9   0.000000  17.783430  26.623784   5.638919   # N_3
 116 1 8   0.000000  18.983185   0.000000   9.556119   # C_R
 117 1 5   0.000000  20.847085   0.000000   8.889121   # H_
 118 1 8   0.000000  17.657185  26.896000   9.238818   # C_R
 119 1 6   0.000000  16.600184  26.896000  10.295817   # C_2
 120 1 5   0.000000  16.444186  26.896000   7.668017   # H_
 121 1 5   0.000000  19.227984   0.000000  10.451819   # H_
 122 1 10   0.000000  15.381784  26.896000   9.881616   # O_1
 123 1 10   0.000000  17.014383  26.896000  11.514218   # O_1
 124 2 5   0.000000  17.899718  25.620369   5.488799   # H_
 125 2 7   0.000000  16.534188   0.206897   5.049361   # C_3
 126 2 7   0.000000  16.177573   1.667489   5.321294   # C_3
 127 2 5   0.000000  16.442886   1.997435   6.329793   # H_
 128 2 7   0.000000  14.663597   1.689585   5.158277   # C_3
 129 2 5   0.000000  16.672819   2.345972   4.619114   # H_
 130 2 7   0.000000  14.219686   0.377537   5.789538   # C_3
 131 2 5   0.000000  14.396909   1.706667   4.094850   # H_
 132 2 5   0.000000  14.205750   2.558058   5.640304   # H_
 133 2 7   0.000000  15.295479  26.264963   5.390180   # C_3
 134 2 5   0.000000  13.223819   0.072304   5.454687   # H_
 135 2 5   0.000000  14.188757   0.479628   6.880503   # H_
 136 2 5   0.000000  14.971003  25.717810   4.496186   # H_
 137 2 5   0.000000  15.456308  25.515311   6.170890   # H_
 138 2 5   0.000000  16.677262   0.114323   3.963646   # H_
 139 1 10   0.000000  23.329590   0.000000  24.962178   # O_1
 140 1 6   0.000000  23.743789   0.000000  23.743777   # C_2
 141 1 10   0.000000  24.962189   0.000000  23.329576   # O_1
 142 1 8   0.000000  22.686789   0.000000  22.686778   # C_R
 143 1 8   0.000000  21.360789  26.896000  23.004079   # C_R
 144 1 8   0.000000  23.004088   0.000000  21.360778   # C_R
 145 1 8   0.000000  20.387188  26.896000  22.068180   # C_R
 146 1 5   0.000000  21.115990  26.896000  23.899779   # H_
 147 1 8   0.000000  22.068187   0.000000  20.387179   # C_R
 148 1 5   0.000000  23.899788   0.000000  21.115977   # H_
 149 1 8   0.000000  20.691087   0.000000  20.691080   # C_R
 150 1 8   0.000000  19.652886  26.896000  19.652880   # C_R
 151 1 5   0.000000  19.496888  26.896000  22.337080   # H_
 152 1 8   0.000000  18.275787  26.896000  19.956781   # C_R
 153 1 5   0.000000  22.337086   0.000000  19.496878   # H_
 154 1 8   0.000000  19.956785   0.000000  18.275780   # C_R
 155 1 8   0.000000  17.339886  26.896000  18.983182   # C_R
 156 2 9   0.000000  17.783430   0.272216  21.257081   # N_3
 157 1 8   0.000000  18.983185   0.000000  17.339881   # C_R
 158 1 5   0.000000  20.847085   0.000000  18.006879   # H_
 159 1 8   0.000000  17.657185  26.896000  17.657182   # C_R
 160 1 6   0.000000  16.600184  26.896000  16.600183   # C_2
 161 1 5   0.000000  16.444186  26.896000  19.227983   # H_
 162 1 5   0.000000  19.227984   0.000000  16.444181   # H_
 163 1 10   0.000000  15.381784  26.896000  17.014384   # O_1
 164 1 10   0.000000  17.014383  26.896000  15.381782   # O_1
 165 2 5   0.000000  17.899718   1.275631  21.407201   # H_
 166 2 7   0.000000  16.534188  26.689103  21.846639   # C_3
 167 2 7   0.000000  16.177573  25.228511  21.574706   # C_3
 168 2 5   0.000000  16.442886  24.898565  20.566207   # H_
 169 2 7   0.000000  14.663597  25.206415  21.737723   # C_3
 170 2 5   0.000000  16.672819  24.550028  22.276886   # H_
 171 2 7   0.000000  14.219686  26.518463  21.106462   # C_3
 172 2 5   0.000000  14.396909  25.189333  22.801150   # H_
 173 2 5   0.000000  14.205750  24.337942  21.255696   # H_
 174 2 7   0.000000  15.295479   0.631037  21.505820   # C_3
 175 2 5   0.000000  13.223819  26.823696  21.441313   # H_
 176 2 5   0.000000  14.188757  26.416372  20.015497   # H_
 177 2 5   0.000000  14.971003   1.178190  22.399814   # H_
 178 2 5   0.000000  15.456308   1.380689  20.725110   # H_
 179 2 5   0.000000  16.677262  26.781677  22.932354   # H_
 180 1 10   0.000000   3.566410   0.000000  24.962178   # O_1
 181 1 6   0.000000   3.152211   0.000000  23.743777   # C_2
 182 1 10   0.000000   1.933811   0.000000  23.329576   # O_1
 183 1 8   0.000000   4.209211   0.000000  22.686778   # C_R
 184 1 8   0.000000   5.535211   0.000000  23.004079   # C_R
 185 1 8   0.000000   3.891912   0.000000  21.360778   # C_R
 186 1 8   0.000000   6.508812   0.000000  22.068180   # C_R
 187 1 5   0.000000   5.780010   0.000000  23.899779   # H_
 188 1 8   0.000000   4.827813   0.000000  20.387179   # C_R
 189 1 5   0.000000   2.996212   0.000000  21.115977   # H_
 190 1 8   0.000000   6.204913   0.000000  20.691080   # C_R
 191 1 8   0.000000   7.243114   0.000000  19.652880   # C_R
 192 1 5   0.000000   7.399112   0.000000  22.337080   # H_
 193 1 8   0.000000   8.620213   0.000000  19.956781   # C_R
 194 1 5   0.000000   4.558914   0.000000  19.496878   # H_
 195 1 8   0.000000   6.939215   0.000000  18.275780   # C_R
 196 1 8   0.000000   9.556114   0.000000  18.983182   # C_R
 197 2 9   0.000000   9.112570  26.623784  21.257081   # N_3
 198 1 8   0.000000   7.912815   0.000000  17.339881   # C_R
 199 1 5   0.000000   6.048915   0.000000  18.006879   # H_
 200 1 8   0.000000   9.238815   0.000000  17.657182   # C_R
 201 1 6   0.000000  10.295816   0.000000  16.600183   # C_2
 202 1 5   0.000000  10.451814   0.000000  19.227983   # H_
 203 1 5   0.000000   7.668016   0.000000  16.444181   # H_
 204 1 10   0.000000  11.514216   0.000000  17.014384   # O_1
 205 1 10   0.000000   9.881617   0.000000  15.381782   # O_1
 206 2 5   0.000000   8.996282  25.620369  21.407201   # H_
 207 2 7   0.000000  10.361812   0.206897  21.846639   # C_3
 208 2 7   0.000000  10.718427   1.667489  21.574706   # C_3
 209 2 5   0.000000  10.453114   1.997435  20.566207   # H_
 210 2 7   0.000000  12.232403   1.689585  21.737723   # C_3
 211 2 5   0.000000  10.223181   2.345972  22.276886   # H_
 212 2 7   0.000000  12.676314   0.377537  21.106462   # C_3
 213 2 5   0.000000  12.499091   1.706667  22.801150   # H_
 214 2 5   0.000000  12.690250   2.558058  21.255696   # H_
 215 2 7   0.000000  11.600521  26.264963  21.505820   # C_3
 216 2 5   0.000000  13.672181   0.072304  21.441313   # H_
 217 2 5   0.000000  12.707243   0.479628  20.015497   # H_
 218 2 5   0.000000  11.924997  25.717810  22.399814   # H_
 219 2 5   0.000000  11.439692  25.515311  20.725110   # H_
 220 2 5   0.000000  10.218738   0.114323  22.932354   # H_
 221 1 10   0.000000   1.933822   3.566410   0.000000   # O_1
 222 1 6   0.000000   3.152223   3.152211   0.000000   # C_2
 223 1 10   0.000000   3.566424   1.933811   0.000000   # O_1
 224 1 8   0.000000   4.209222   4.209211   0.000000   # C_R
 225 1 8   0.000000   3.891921   5.535211  26.896000   # C_R
 226 1 8   0.000000   5.535222   3.891912   0.000000   # C_R
 227 1 8   0.000000   4.827820   6.508812  26.896000   # C_R
 228 1 5   0.000000   2.996221   5.780010  26.896000   # H_
 229 1 8   0.000000   6.508821   4.827813   0.000000   # C_R
 230 1 5   0.000000   5.780023   2.996212   0.000000   # H_
 231 1 8   0.000000   6.204920   6.204913   0.000000   # C_R
 232 1 8   0.000000   7.243120   7.243114  26.896000   # C_R
 233 1 5   0.000000   4.558920   7.399112  26.896000   # H_
 234 1 8   0.000000   6.939219   8.620213  26.896000   # C_R
 235 1 5   0.000000   7.399122   4.558914   0.000000   # H_
 236 1 8   0.000000   8.620220   6.939215   0.000000   # C_R
 237 1 8   0.000000   7.912818   9.556114  26.896000   # C_R
 238 2 9   0.000000   5.638919   9.112570   0.272216   # N_3
 239 1 8   0.000000   9.556119   7.912815   0.000000   # C_R
 240 1 5   0.000000   8.889121   6.048915   0.000000   # H_
 241 1 8   0.000000   9.238818   9.238815  26.896000   # C_R
 242 1 6   0.000000  10.295817  10.295816  26.896000   # C_2
 243 1 5   0.000000   7.668017  10.451814  26.896000   # H_
 244 1 5   0.000000  10.451819   7.668016   0.000000   # H_
 245 1 10   0.000000   9.881616  11.514216  26.896000   # O_1
 246 1 10   0.000000  11.514218   9.881617  26.896000   # O_1
 247 2 5   0.000000   5.488799   8.996282   1.275631   # H_
 248 2 7   0.000000   5.049361  10.361812  26.689103   # C_3
 249 2 7   0.000000   5.321294  10.718427  25.228511   # C_3
 250 2 5   0.000000   6.329793  10.453114  24.898565   # H_
 251 2 7   0.000000   5.158277  12.232403  25.206415   # C_3
 252 2 5   0.000000   4.619114  10.223181  24.550028   # H_
 253 2 7   0.000000   5.789538  12.676314  26.518463   # C_3
 254 2 5   0.000000   4.094850  12.499091  25.189333   # H_
 255 2 5   0.000000   5.640304  12.690250  24.337942   # H_
 256 2 7   0.000000   5.390180  11.600521   0.631037   # C_3
 257 2 5   0.000000   5.454687  13.672181  26.823696   # H_
 258 2 5   0.000000   6.880503  12.707243  26.416372   # H_
 259 2 5   0.000000   4.496186  11.924997   1.178190   # H_
 260 2 5   0.000000   6.170890  11.439692   1.380689   # H_
 261 2 5   0.000000   3.963646  10.218738  26.781677   # H_
 262 1 10   0.000000   1.933822  23.329590   0.000000   # O_1
 263 1 6   0.000000   3.152223  23.743789   0.000000   # C_2
 264 1 10   0.000000   3.566424  24.962189   0.000000   # O_1
 265 1 8   0.000000   4.209222  22.686789   0.000000   # C_R
 266 1 8   0.000000   3.891921  21.360789   0.000000   # C_R
 267 1 8   0.000000   5.535222  23.004088   0.000000   # C_R
 268 1 8   0.000000   4.827820  20.387188   0.000000   # C_R
 269 1 5   0.000000   2.996221  21.115990   0.000000   # H_
 270 1 8   0.000000   6.508821  22.068187   0.000000   # C_R
 271 1 5   0.000000   5.780023  23.899788   0.000000   # H_
 272 1 8   0.000000   6.204920  20.691087   0.000000   # C_R
 273 1 8   0.000000   7.243120  19.652886   0.000000   # C_R
 274 1 5   0.000000   4.558920  19.496888   0.000000   # H_
 275 1 8   0.000000   6.939219  18.275787   0.000000   # C_R
 276 1 5   0.000000   7.399122  22.337086   0.000000   # H_
 277 1 8   0.000000   8.620220  19.956785   0.000000   # C_R
 278 1 8   0.000000   7.912818  17.339886   0.000000   # C_R
 279 2 9   0.000000   5.638919  17.783430  26.623784   # N_3
 280 1 8   0.000000   9.556119  18.983185   0.000000   # C_R
 281 1 5   0.000000   8.889121  20.847085   0.000000   # H_
 282 1 8   0.000000   9.238818  17.657185   0.000000   # C_R
 283 1 6   0.000000  10.295817  16.600184   0.000000   # C_2
 284 1 5   0.000000   7.668017  16.444186   0.000000   # H_
 285 1 5   0.000000  10.451819  19.227984   0.000000   # H_
 286 1 10   0.000000   9.881616  15.381784   0.000000   # O_1
 287 1 10   0.000000  11.514218  17.014383   0.000000   # O_1
 288 2 5   0.000000   5.488799  17.899718  25.620369   # H_
 289 2 7   0.000000   5.049361  16.534188   0.206897   # C_3
 290 2 7   0.000000   5.321294  16.177573   1.667489   # C_3
 291 2 5   0.000000   6.329793  16.442886   1.997435   # H_
 292 2 7   0.000000   5.158277  14.663597   1.689585   # C_3
 293 2 5   0.000000   4.619114  16.672819   2.345972   # H_
 294 2 7   0.000000   5.789538  14.219686   0.377537   # C_3
 295 2 5   0.000000   4.094850  14.396909   1.706667   # H_
 296 2 5   0.000000   5.640304  14.205750   2.558058   # H_
 297 2 7   0.000000   5.390180  15.295479  26.264963   # C_3
 298 2 5   0.000000   5.454687  13.223819   0.072304   # H_
 299 2 5   0.000000   6.880503  14.188757   0.479628   # H_
 300 2 5   0.000000   4.496186  14.971003  25.717810   # H_
 301 2 5   0.000000   6.170890  15.456308  25.515311   # H_
 302 2 5   0.000000   3.963646  16.677262   0.114323   # H_
 303 1 10   0.000000  24.962178  23.329590   0.000000   # O_1
 304 1 6   0.000000  23.743777  23.743789   0.000000   # C_2
 305 1 10   0.000000  23.329576  24.962189   0.000000   # O_1
 306 1 8   0.000000  22.686778  22.686789   0.000000   # C_R
 307 1 8   0.000000  23.004079  21.360789  26.896000   # C_R
 308 1 8   0.000000  21.360778  23.004088   0.000000   # C_R
 309 1 8   0.000000  22.068180  20.387188  26.896000   # C_R
 310 1 5   0.000000  23.899779  21.115990  26.896000   # H_
 311 1 8   0.000000  20.387179  22.068187   0.000000   # C_R
 312 1 5   0.000000  21.115977  23.899788   0.000000   # H_
 313 1 8   0.000000  20.691080  20.691087   0.000000   # C_R
 314 1 8   0.000000  19.652880  19.652886  26.896000   # C_R
 315 1 5   0.000000  22.337080  19.496888  26.896000   # H_
 316 1 8   0.000000  19.956781  18.275787  26.896000   # C_R
 317 1 5   0.000000  19.496878  22.337086   0.000000   # H_
 318 1 8   0.000000  18.275780  19.956785   0.000000   # C_R
 319 1 8   0.000000  18.983182  17.339886  26.896000   # C_R
 320 2 9   0.000000  21.257081  17.783430   0.272216   # N_3
 321 1 8   0.000000  17.339881  18.983185   0.000000   # C_R
 322 1 5   0.000000  18.006879  20.847085   0.000000   # H_
 323 1 8   0.000000  17.657182  17.657185  26.896000   # C_R
 324 1 6   0.000000  16.600183  16.600184  26.896000   # C_2
 325 1 5   0.000000  19.227983  16.444186  26.896000   # H_
 326 1 5   0.000000  16.444181  19.227984   0.000000   # H_
 327 1 10   0.000000  17.014384  15.381784  26.896000   # O_1
 328 1 10   0.000000  15.381782  17.014383   0.000000   # O_1
 329 2 5   0.000000  21.407201  17.899718   1.275631   # H_
 330 2 7   0.000000  21.846639  16.534188  26.689103   # C_3
 331 2 7   0.000000  21.574706  16.177573  25.228511   # C_3
 332 2 5   0.000000  20.566207  16.442886  24.898565   # H_
 333 2 7   0.000000  21.737723  14.663597  25.206415   # C_3
 334 2 5   0.000000  22.276886  16.672819  24.550028   # H_
 335 2 7   0.000000  21.106462  14.219686  26.518463   # C_3
 336 2 5   0.000000  22.801150  14.396909  25.189333   # H_
 337 2 5   0.000000  21.255696  14.205750  24.337942   # H_
 338 2 7   0.000000  21.505820  15.295479   0.631037   # C_3
 339 2 5   0.000000  21.441313  13.223819  26.823696   # H_
 340 2 5   0.000000  20.015497  14.188757  26.416372   # H_
 341 2 5   0.000000  22.399814  14.971003   1.178190   # H_
 342 2 5   0.000000  20.725110  15.456308   1.380689   # H_
 343 2 5   0.000000  22.932354  16.677262  26.781677   # H_
 344 1 10   0.000000  24.962178   3.566410   0.000000   # O_1
 345 1 6   0.000000  23.743777   3.152211   0.000000   # C_2
 346 1 10   0.000000  23.329576   1.933811   0.000000   # O_1
 347 1 8   0.000000  22.686778   4.209211   0.000000   # C_R
 348 1 8   0.000000  23.004079   5.535211   0.000000   # C_R
 349 1 8   0.000000  21.360778   3.891912   0.000000   # C_R
 350 1 8   0.000000  22.068180   6.508812   0.000000   # C_R
 351 1 5   0.000000  23.899779   5.780010   0.000000   # H_
 352 1 8   0.000000  20.387179   4.827813   0.000000   # C_R
 353 1 5   0.000000  21.115977   2.996212   0.000000   # H_
 354 1 8   0.000000  20.691080   6.204913   0.000000   # C_R
 355 1 8   0.000000  19.652880   7.243114   0.000000   # C_R
 356 1 5   0.000000  22.337080   7.399112   0.000000   # H_
 357 1 8   0.000000  19.956781   8.620213   0.000000   # C_R
 358 1 5   0.000000  19.496878   4.558914   0.000000   # H_
 359 1 8   0.000000  18.275780   6.939215   0.000000   # C_R
 360 1 8   0.000000  18.983182   9.556114   0.000000   # C_R
 361 2 9   0.000000  21.257081   9.112570  26.623784   # N_3
 362 1 8   0.000000  17.339881   7.912815   0.000000   # C_R
 363 1 5   0.000000  18.006879   6.048915   0.000000   # H_
 364 1 8   0.000000  17.657182   9.238815   0.000000   # C_R
 365 1 6   0.000000  16.600183  10.295816   0.000000   # C_2
 366 1 5   0.000000  19.227983  10.451814   0.000000   # H_
 367 1 5   0.000000  16.444181   7.668016   0.000000   # H_
 368 1 10   0.000000  17.014384  11.514216   0.000000   # O_1
 369 1 10   0.000000  15.381782   9.881617   0.000000   # O_1
 370 2 5   0.000000  21.407201   8.996282  25.620369   # H_
 371 2 7   0.000000  21.846639  10.361812   0.206897   # C_3
 372 2 7   0.000000  21.574706  10.718427   1.667489   # C_3
 373 2 5   0.000000  20.566207  10.453114   1.997435   # H_
 374 2 7   0.000000  21.737723  12.232403   1.689585   # C_3
 375 2 5   0.000000  22.276886  10.223181   2.345972   # H_
 376 2 7   0.000000  21.106462  12.676314   0.377537   # C_3
 377 2 5   0.000000  22.801150  12.499091   1.706667   # H_
 378 2 5   0.000000  21.255696  12.690250   2.558058   # H_
 379 2 7   0.000000  21.505820  11.600521  26.264963   # C_3
 380 2 5   0.000000  21.441313  13.672181   0.072304   # H_
 381 2 5   0.000000  20.015497  12.707243   0.479628   # H_
 382 2 5   0.000000  22.399814  11.924997  25.717810   # H_
 383 2 5   0.000000  20.725110  11.439692  25.515311   # H_
 384 2 5   0.000000  22.932354  10.218738   0.114323   # H_
 385 1 10   0.000000   0.000000   1.933822   3.566410   # O_1
 386 1 6   0.000000   0.000000   3.152223   3.152211   # C_2
 387 1 10   0.000000   0.000000   3.566424   1.933811   # O_1
 388 1 8   0.000000   0.000000   4.209222   4.209211   # C_R
 389 1 8   0.000000   0.000000   3.891921   5.535211   # C_R
 390 1 8   0.000000   0.000000   5.535222   3.891912   # C_R
 391 1 8   0.000000   0.000000   4.827820   6.508812   # C_R
 392 1 5   0.000000   0.000000   2.996221   5.780010   # H_
 393 1 8   0.000000   0.000000   6.508821   4.827813   # C_R
 394 1 5   0.000000   0.000000   5.780023   2.996212   # H_
 395 1 8   0.000000   0.000000   6.204920   6.204913   # C_R
 396 1 8   0.000000   0.000000   7.243120   7.243114   # C_R
 397 1 5   0.000000   0.000000   4.558920   7.399112   # H_
 398 1 8   0.000000   0.000000   6.939219   8.620213   # C_R
 399 1 5   0.000000   0.000000   7.399122   4.558914   # H_
 400 1 8   0.000000   0.000000   8.620220   6.939215   # C_R
 401 1 8   0.000000   0.000000   7.912818   9.556114   # C_R
 402 2 9   0.000000   0.272216   5.638919   9.112570   # N_3
 403 1 8   0.000000   0.000000   9.556119   7.912815   # C_R
 404 1 5   0.000000   0.000000   8.889121   6.048915   # H_
 405 1 8   0.000000   0.000000   9.238818   9.238815   # C_R
 406 1 6   0.000000   0.000000  10.295817  10.295816   # C_2
 407 1 5   0.000000   0.000000   7.668017  10.451814   # H_
 408 1 5   0.000000   0.000000  10.451819   7.668016   # H_
 409 1 10   0.000000   0.000000   9.881616  11.514216   # O_1
 410 1 10   0.000000   0.000000  11.514218   9.881617   # O_1
 411 2 5   0.000000   1.275631   5.488799   8.996282   # H_
 412 2 7   0.000000  26.689103   5.049361  10.361812   # C_3
 413 2 7   0.000000  25.228511   5.321294  10.718427   # C_3
 414 2 5   0.000000  24.898565   6.329793  10.453114   # H_
 415 2 7   0.000000  25.206415   5.158277  12.232403   # C_3
 416 2 5   0.000000  24.550028   4.619114  10.223181   # H_
 417 2 7   0.000000  26.518463   5.789538  12.676314   # C_3
 418 2 5   0.000000  25.189333   4.094850  12.499091   # H_
 419 2 5   0.000000  24.337942   5.640304  12.690250   # H_
 420 2 7   0.000000   0.631037   5.390180  11.600521   # C_3
 421 2 5   0.000000  26.823696   5.454687  13.672181   # H_
 422 2 5   0.000000  26.416372   6.880503  12.707243   # H_
 423 2 5   0.000000   1.178190   4.496186  11.924997   # H_
 424 2 5   0.000000   1.380689   6.170890  11.439692   # H_
 425 2 5   0.000000  26.781677   3.963646  10.218738   # H_
 426 1 10   0.000000   0.000000   1.933822  23.329590   # O_1
 427 1 6   0.000000   0.000000   3.152223  23.743789   # C_2
 428 1 10   0.000000   0.000000   3.566424  24.962189   # O_1
 429 1 8   0.000000   0.000000   4.209222  22.686789   # C_R
 430 1 8   0.000000   0.000000   3.891921  21.360789   # C_R
 431 1 8   0.000000   0.000000   5.535222  23.004088   # C_R
 432 1 8   0.000000   0.000000   4.827820  20.387188   # C_R
 433 1 5   0.000000   0.000000   2.996221  21.115990   # H_
 434 1 8   0.000000   0.000000   6.508821  22.068187   # C_R
 435 1 5   0.000000   0.000000   5.780023  23.899788   # H_
 436 1 8   0.000000   0.000000   6.204920  20.691087   # C_R
 437 1 8   0.000000   0.000000   7.243120  19.652886   # C_R
 438 1 5   0.000000   0.000000   4.558920  19.496888   # H_
 439 1 8   0.000000   0.000000   6.939219  18.275787   # C_R
 440 1 5   0.000000   0.000000   7.399122  22.337086   # H_
 441 1 8   0.000000   0.000000   8.620220  19.956785   # C_R
 442 1 8   0.000000   0.000000   7.912818  17.339886   # C_R
 443 2 9   0.000000  26.623784   5.638919  17.783430   # N_3
 444 1 8   0.000000   0.000000   9.556119  18.983185   # C_R
 445 1 5   0.000000   0.000000   8.889121  20.847085   # H_
 446 1 8   0.000000   0.000000   9.238818  17.657185   # C_R
 447 1 6   0.000000   0.000000  10.295817  16.600184   # C_2
 448 1 5   0.000000   0.000000   7.668017  16.444186   # H_
 449 1 5   0.000000   0.000000  10.451819  19.227984   # H_
 450 1 10   0.000000   0.000000   9.881616  15.381784   # O_1
 451 1 10   0.000000   0.000000  11.514218  17.014383   # O_1
 452 2 5   0.000000  25.620369   5.488799  17.899718   # H_
 453 2 7   0.000000   0.206897   5.049361  16.534188   # C_3
 454 2 7   0.000000   1.667489   5.321294  16.177573   # C_3
 455 2 5   0.000000   1.997435   6.329793  16.442886   # H_
 456 2 7   0.000000   1.689585   5.158277  14.663597   # C_3
 457 2 5   0.000000   2.345972   4.619114  16.672819   # H_
 458 2 7   0.000000   0.377537   5.789538  14.219686   # C_3