 (written by mofun)

456 atoms
48 bonds
72 angles
144 dihedrals
0 impropers

9 atom types
2 bond types
2 angle types
4 dihedral types
   0.000000  20.700400 xlo xhi
   0.000000  20.700400 ylo yhi
   0.000000  20.700400 zlo zhi

Masses

 1 91.2240   # Zr3+4
 2 15.9994   # O_3
 3 12.0107   # C_3
 4 1.0079   # H_
 5 1.0079   # H_
 6 12.0107   # C_2
 7 12.0107   # C_R
 8 15.9994   # O_1
 9 15.9994   # O_3

Pair Coeffs

 1   0.069000   2.783168 # Zr3+4
 2   0.060000   3.118146 # O_3
 3   0.105000   3.430851 # C_3
 4   0.044000   2.571134 # H_
 5 0.044000 2.571134   # H_
 6 0.105000 3.430851   # C_2
 7 0.105000 3.430851   # C_R
 8 0.060000 3.118146   # O_1
 9 0.060000 3.118146   # O_3

Bond Coeffs

 1 572.510195 1.366311   # C_R O_3
 2 559.995206 0.990254   # H_ O_3

Angle Coeffs

 1 cosine/periodic  271.563462  -1  3   # C_R C_R O_3
 2 fourier  181.607508  0.300235  0.267331  0.266745   # C_R O_3 H_

Dihedral Coeffs

 1 harmonic 3.368555 -1 2   # C_R C_R C_R O_3 M=4
 2 harmonic 3.368555 -1 2   # H_ C_R C_R O_3 M=4
 3 harmonic 3.368555 -1 2   # C_2 C_R C_R O_3 M=4
 4 harmonic 2.500000 1 2   # C_R C_R O_3 H_ M=2

Atoms

 1 1 1   0.000000   2.481771   0.000000   0.000000   # Zr3+4
 2 1 1   0.000000   2.481771  10.350200  10.350200   # Zr3+4
 3 1 1   0.000000  12.831971   0.000000  10.350200   # Zr3+4
 4 1 1   0.000000  12.831971  10.350200   0.000000   # Zr3+4
 5 1 1   0.000000  18.218629   0.000000   0.000000   # Zr3+4
 6 1 1   0.000000  18.218629  10.350200  10.350200   # Zr3+4
 7 1 1   0.000000   7.868429   0.000000  10.350200   # Zr3+4
 8 1 1   0.000000   7.868429  10.350200   0.000000   # Zr3+4
 9 1 1   0.000000   0.000000   2.481771   0.000000   # Zr3+4
 10 1 1   0.000000   0.000000  12.831971  10.350200   # Zr3+4
 11 1 1   0.000000  10.350200   2.481771  10.350200   # Zr3+4
 12 1 1   0.000000  10.350200  12.831971   0.000000   # Zr3+4
 13 1 1   0.000000   0.000000  18.218629   0.000000   # Zr3+4
 14 1 1   0.000000   0.000000   7.868429  10.350200   # Zr3+4
 15 1 1   0.000000  10.350200  18.218629  10.350200   # Zr3+4
 16 1 1   0.000000  10.350200   7.868429   0.000000   # Zr3+4
 17 1 1   0.000000   0.000000   0.000000   2.481771   # Zr3+4
 18 1 1   0.000000   0.000000  10.350200  12.831971   # Zr3+4
 19 1 1   0.000000  10.350200   0.000000  12.831971   # Zr3+4
 20 1 1   0.000000  10.350200  10.350200   2.481771   # Zr3+4
 21 1 1   0.000000   0.000000   0.000000  18.218629   # Zr3+4
 22 1 1   0.000000   0.000000  10.350200   7.868429   # Zr3+4
 23 1 1   0.000000  10.350200   0.000000   7.868429   # Zr3+4
 24 1 1   0.000000  10.350200  10.350200  18.218629   # Zr3+4
 25 1 2   0.000000   1.161292   9.188908   9.188908   # O_3
 26 1 2   0.000000  11.511492  19.539108   9.188908   # O_3
 27 1 2   0.000000  11.511492   9.188908  19.539108   # O_3
 28 1 2   0.000000   9.188908   1.161292   9.188908   # O_3
 29 1 2   0.000000   9.188908  11.511492  19.539108   # O_3
 30 1 2   0.000000  19.539108  19.539108   1.161292   # O_3
 31 1 2   0.000000  19.539108   9.188908  11.511492   # O_3
 32 1 2   0.000000   1.161292   1.161292   1.161292   # O_3
 33 1 2   0.000000  11.511492  11.511492   1.161292   # O_3
 34 1 2   0.000000  19.539108   1.161292   1.161292   # O_3
 35 1 2   0.000000  19.539108  11.511492  11.511492   # O_3
 36 1 2   0.000000   9.188908   1.161292  11.511492   # O_3
 37 1 2   0.000000   9.188908  11.511492   1.161292   # O_3
 38 1 2   0.000000   1.161292  19.539108   1.161292   # O_3
 39 1 2   0.000000   1.161292   9.188908  11.511492   # O_3
 40 1 2   0.000000  11.511492  19.539108  11.511492   # O_3
 41 1 2   0.000000  11.511492   9.188908   1.161292   # O_3
 42 1 2   0.000000  19.539108  19.539108  19.539108   # O_3
 43 1 2   0.000000  19.539108   9.188908   9.188908   # O_3
 44 1 2   0.000000   9.188908  19.539108   9.188908   # O_3
 45 1 2   0.000000   9.188908   9.188908  19.539108   # O_3
 46 1 2   0.000000   1.161292   1.161292  19.539108   # O_3
 47 1 2   0.000000   1.161292  11.511492   9.188908   # O_3
 48 1 2   0.000000  11.511492   1.161292   9.188908   # O_3
 49 1 6   0.000000   3.179581   0.000000  17.520819   # C_2
 50 1 8   0.000000   3.528595   0.000000  18.727815   # O_1
 51 1 8   0.000000   1.972577  20.700400  17.171832   # O_1
 52 1 7   0.000000   4.243569   0.000000  16.456806   # C_R
 53 1 7   0.000000   3.816555  20.700400  15.162811   # C_R
 54 1 5   0.000000   2.700552  20.700400  14.930824   # H_
 55 2 9   0.000000   4.360760   0.000005  12.885179   # O_3
 56 1 7   0.000000   4.812543  20.700400  14.167800   # C_R
 57 1 7   0.000000   6.106548   0.000000  14.593785   # C_R
 58 1 7   0.000000   6.532563   0.000000  15.887781   # C_R
 59 1 7   0.000000   5.537574   0.000000  16.883792   # C_R
 60 1 5   0.000000   5.769587   0.000000  17.999789   # H_
 61 1 5   0.000000   7.648566   0.000000  16.119768   # H_
 62 1 8   0.000000   8.377540   0.000000  13.878760   # O_1
 63 1 6   0.000000   7.170536   0.000000  13.529773   # C_2
 64 1 8   0.000000   6.821523  20.700400  12.322777   # O_1
 65 2 5   0.000000   3.395966   0.000121  12.899608   # H_
 66 1 6   0.000000   3.179581  10.350200   7.170619   # C_2
 67 1 8   0.000000   3.528595  10.350200   8.377615   # O_1
 68 1 8   0.000000   1.972577  10.350200   6.821632   # O_1
 69 1 7   0.000000   4.243569  10.350200   6.106606   # C_R
 70 1 7   0.000000   3.816555  10.350200   4.812611   # C_R
 71 1 5   0.000000   2.700552  10.350200   4.580624   # H_
 72 2 9   0.000000   4.360760  10.350205   2.534979   # O_3
 73 1 7   0.000000   4.812543  10.350200   3.817600   # C_R
 74 1 7   0.000000   6.106548  10.350200   4.243585   # C_R
 75 1 7   0.000000   6.532563  10.350200   5.537581   # C_R
 76 1 7   0.000000   5.537574  10.350200   6.533592   # C_R
 77 1 5   0.000000   5.769587  10.350200   7.649589   # H_
 78 1 5   0.000000   7.648566  10.350200   5.769568   # H_
 79 1 8   0.000000   8.377540  10.350200   3.528560   # O_1
 80 1 6   0.000000   7.170536  10.350200   3.179573   # C_2
 81 1 8   0.000000   6.821523  10.350200   1.972577   # O_1
 82 2 5   0.000000   3.395966  10.350321   2.549408   # H_
 83 1 6   0.000000  13.529781   0.000000   7.170619   # C_2
 84 1 8   0.000000  13.878795   0.000000   8.377615   # O_1
 85 1 8   0.000000  12.322777  20.700400   6.821632   # O_1
 86 1 7   0.000000  14.593769   0.000000   6.106606   # C_R
 87 1 7   0.000000  14.166755  20.700400   4.812611   # C_R
 88 1 5   0.000000  13.050752  20.700400   4.580624   # H_
 89 2 9   0.000000  14.710960   0.000005   2.534979   # O_3
 90 1 7   0.000000  15.162743  20.700400   3.817600   # C_R
 91 1 7   0.000000  16.456748   0.000000   4.243585   # C_R
 92 1 7   0.000000  16.882763   0.000000   5.537581   # C_R
 93 1 7   0.000000  15.887774   0.000000   6.533592   # C_R
 94 1 5   0.000000  16.119787   0.000000   7.649589   # H_
 95 1 5   0.000000  17.998766   0.000000   5.769568   # H_
 96 1 8   0.000000  18.727740   0.000000   3.528560   # O_1
 97 1 6   0.000000  17.520736   0.000000   3.179573   # C_2
 98 1 8   0.000000  17.171723  20.700400   1.972577   # O_1
 99 2 5   0.000000  13.746166   0.000121   2.549408   # H_
 100 1 6   0.000000  13.529781  10.350200  17.520819   # C_2
 101 1 8   0.000000  13.878795  10.350200  18.727815   # O_1
 102 1 8   0.000000  12.322777  10.350200  17.171832   # O_1
 103 1 7   0.000000  14.593769  10.350200  16.456806   # C_R
 104 1 7   0.000000  14.166755  10.350200  15.162811   # C_R
 105 1 5   0.000000  13.050752  10.350200  14.930824   # H_
 106 2 9   0.000000  14.710960  10.350205  12.885179   # O_3
 107 1 7   0.000000  15.162743  10.350200  14.167800   # C_R
 108 1 7   0.000000  16.456748  10.350200  14.593785   # C_R
 109 1 7   0.000000  16.882763  10.350200  15.887781   # C_R
 110 1 7   0.000000  15.887774  10.350200  16.883792   # C_R
 111 1 5   0.000000  16.119787  10.350200  17.999789   # H_
 112 1 5   0.000000  17.998766  10.350200  16.119768   # H_
 113 1 8   0.000000  18.727740  10.350200  13.878760   # O_1
 114 1 6   0.000000  17.520736  10.350200  13.529773   # C_2
 115 1 8   0.000000  17.171723  10.350200  12.322777   # O_1
 116 2 5   0.000000  13.746166  10.350321  12.899608   # H_
 117 1 6   0.000000  17.520819   0.000000  17.520819   # C_2
 118 1 8   0.000000  17.171805   0.000000  18.727815   # O_1
 119 1 8   0.000000  18.727823   0.000000  17.171832   # O_1
 120 1 7   0.000000  16.456831   0.000000  16.456806   # C_R
 121 1 7   0.000000  16.883845   0.000000  15.162811   # C_R
 122 1 5   0.000000  17.999848   0.000000  14.930824   # H_
 123 2 9   0.000000  16.339640  20.700395  12.885179   # O_3
 124 1 7   0.000000  15.887857   0.000000  14.167800   # C_R
 125 1 7   0.000000  14.593852   0.000000  14.593785   # C_R
 126 1 7   0.000000  14.167837   0.000000  15.887781   # C_R
 127 1 7   0.000000  15.162826   0.000000  16.883792   # C_R
 128 1 5   0.000000  14.930813   0.000000  17.999789   # H_
 129 1 5   0.000000  13.051834   0.000000  16.119768   # H_
 130 1 8   0.000000  12.322860   0.000000  13.878760   # O_1
 131 1 6   0.000000  13.529864   0.000000  13.529773   # C_2
 132 1 8   0.000000  13.878877   0.000000  12.322777   # O_1
 133 2 5   0.000000  17.304434  20.700279  12.899608   # H_
 134 1 6   0.000000  17.520819  10.350200   7.170619   # C_2
 135 1 8   0.000000  17.171805  10.350200   8.377615   # O_1
 136 1 8   0.000000  18.727823  10.350200   6.821632   # O_1
 137 1 7   0.000000  16.456831  10.350200   6.106606   # C_R
 138 1 7   0.000000  16.883845  10.350200   4.812611   # C_R
 139 1 5   0.000000  17.999848  10.350200   4.580624   # H_
 140 2 9   0.000000  16.339640  10.350195   2.534979   # O_3
 141 1 7   0.000000  15.887857  10.350200   3.817600   # C_R
 142 1 7   0.000000  14.593852  10.350200   4.243585   # C_R
 143 1 7   0.000000  14.167837  10.350200   5.537581   # C_R
 144 1 7   0.000000  15.162826  10.350200   6.533592   # C_R
 145 1 5   0.000000  14.930813  10.350200   7.649589   # H_
 146 1 5   0.000000  13.051834  10.350200   5.769568   # H_
 147 1 8   0.000000  12.322860  10.350200   3.528560   # O_1
 148 1 6   0.000000  13.529864  10.350200   3.179573   # C_2
 149 1 8   0.000000  13.878877  10.350200   1.972577   # O_1
 150 2 5   0.000000  17.304434  10.350079   2.549408   # H_
 151 1 6   0.000000   7.170619   0.000000   7.170619   # C_2
 152 1 8   0.000000   6.821605   0.000000   8.377615   # O_1
 153 1 8   0.000000   8.377623   0.000000   6.821632   # O_1
 154 1 7   0.000000   6.106631   0.000000   6.106606   # C_R
 155 1 7   0.000000   6.533645   0.000000   4.812611   # C_R
 156 1 5   0.000000   7.649648   0.000000   4.580624   # H_
 157 2 9   0.000000   5.989440  20.700395   2.534979   # O_3
 158 1 7   0.000000   5.537657   0.000000   3.817600   # C_R
 159 1 7   0.000000   4.243652   0.000000   4.243585   # C_R
 160 1 7   0.000000   3.817637   0.000000   5.537581   # C_R
 161 1 7   0.000000   4.812626   0.000000   6.533592   # C_R
 162 1 5   0.000000   4.580613   0.000000   7.649589   # H_
 163 1 5   0.000000   2.701634   0.000000   5.769568   # H_
 164 1 8   0.000000   1.972660   0.000000   3.528560   # O_1
 165 1 6   0.000000   3.179664   0.000000   3.179573   # C_2
 166 1 8   0.000000   3.528677   0.000000   1.972577   # O_1
 167 2 5   0.000000   6.954234  20.700279   2.549408   # H_
 168 1 6   0.000000   7.170619  10.350200  17.520819   # C_2
 169 1 8   0.000000   6.821605  10.350200  18.727815   # O_1
 170 1 8   0.000000   8.377623  10.350200  17.171832   # O_1
 171 1 7   0.000000   6.106631  10.350200  16.456806   # C_R
 172 1 7   0.000000   6.533645  10.350200  15.162811   # C_R
 173 1 5   0.000000   7.649648  10.350200  14.930824   # H_
 174 2 9   0.000000   5.989440  10.350195  12.885179   # O_3
 175 1 7   0.000000   5.537657  10.350200  14.167800   # C_R
 176 1 7   0.000000   4.243652  10.350200  14.593785   # C_R
 177 1 7   0.000000   3.817637  10.350200  15.887781   # C_R
 178 1 7   0.000000   4.812626  10.350200  16.883792   # C_R
 179 1 5   0.000000   4.580613  10.350200  17.999789   # H_
 180 1 5   0.000000   2.701634  10.350200  16.119768   # H_
 181 1 8   0.000000   1.972660  10.350200  13.878760   # O_1
 182 1 6   0.000000   3.179664  10.350200  13.529773   # C_2
 183 1 8   0.000000   3.528677  10.350200  12.322777   # O_1
 184 2 5   0.000000   6.954234  10.350079  12.899608   # H_
 185 1 6   0.000000  17.520819   3.179581   0.000000   # C_2
 186 1 8   0.000000  18.727815   3.528595  20.700400   # O_1
 187 1 8   0.000000  17.171832   1.972577   0.000000   # O_1
 188 1 7   0.000000  16.456806   4.243569  20.700400   # C_R
 189 1 7   0.000000  15.162811   3.816555   0.000000   # C_R
 190 1 5   0.000000  14.930824   2.700552   0.000000   # H_
 191 2 9   0.000000  12.885179   4.360760   0.000005   # O_3
 192 1 7   0.000000  14.167800   4.812543   0.000000   # C_R
 193 1 7   0.000000  14.593785   6.106548  20.700400   # C_R
 194 1 7   0.000000  15.887781   6.532563  20.700400   # C_R
 195 1 7   0.000000  16.883792   5.537574  20.700400   # C_R
 196 1 5   0.000000  17.999789   5.769587  20.700400   # H_
 197 1 5   0.000000  16.119768   7.648566  20.700400   # H_
 198 1 8   0.000000  13.878760   8.377540  20.700400   # O_1
 199 1 6   0.000000  13.529773   7.170536  20.700400   # C_2
 200 1 8   0.000000  12.322777   6.821523   0.000000   # O_1
 201 2 5   0.000000  12.899608   3.395966   0.000121   # H_
 202 1 6   0.000000  17.520819  13.529781  10.350200   # C_2
 203 1 8   0.000000  18.727815  13.878795  10.350200   # O_1
 204 1 8   0.000000  17.171832  12.322777  10.350200   # O_1
 205 1 7   0.000000  16.456806  14.593769  10.350200   # C_R
 206 1 7   0.000000  15.162811  14.166755  10.350200   # C_R
 207 1 5   0.000000  14.930824  13.050752  10.350200   # H_
 208 2 9   0.000000  12.885179  14.710960  10.350205   # O_3
 209 1 7   0.000000  14.167800  15.162743  10.350200   # C_R
 210 1 7   0.000000  14.593785  16.456748  10.350200   # C_R
 211 1 7   0.000000  15.887781  16.882763  10.350200   # C_R
 212 1 7   0.000000  16.883792  15.887774  10.350200   # C_R
 213 1 5   0.000000  17.999789  16.119787  10.350200   # H_
 214 1 5   0.000000  16.119768  17.998766  10.350200   # H_
 215 1 8   0.000000  13.878760  18.727740  10.350200   # O_1
 216 1 6   0.000000  13.529773  17.520736  10.350200   # C_2
 217 1 8   0.000000  12.322777  17.171723  10.350200   # O_1
 218 2 5   0.000000  12.899608  13.746166  10.350321   # H_
 219 1 6   0.000000   7.170619   3.179581  10.350200   # C_2
 220 1 8   0.000000   8.377615   3.528595  10.350200   # O_1
 221 1 8   0.000000   6.821632   1.972577  10.350200   # O_1
 222 1 7   0.000000   6.106606   4.243569  10.350200   # C_R
 223 1 7   0.000000   4.812611   3.816555  10.350200   # C_R
 224 1 5   0.000000   4.580624   2.700552  10.350200   # H_
 225 2 9   0.000000   2.534979   4.360760  10.350205   # O_3
 226 1 7   0.000000   3.817600   4.812543  10.350200   # C_R
 227 1 7   0.000000   4.243585   6.106548  10.350200   # C_R
 228 1 7   0.000000   5.537581   6.532563  10.350200   # C_R
 229 1 7   0.000000   6.533592   5.537574  10.350200   # C_R
 230 1 5   0.000000   7.649589   5.769587  10.350200   # H_
 231 1 5   0.000000   5.769568   7.648566  10.350200   # H_
 232 1 8   0.000000   3.528560   8.377540  10.350200   # O_1
 233 1 6   0.000000   3.179573   7.170536  10.350200   # C_2
 234 1 8   0.000000   1.972577   6.821523  10.350200   # O_1
 235 2 5   0.000000   2.549408   3.395966  10.350321   # H_
 236 1 6   0.000000   7.170619  13.529781   0.000000   # C_2
 237 1 8   0.000000   8.377615  13.878795   0.000000   # O_1
 238 1 8   0.000000   6.821632  12.322777  20.700400   # O_1
 239 1 7   0.000000   6.106606  14.593769   0.000000   # C_R
 240 1 7   0.000000   4.812611  14.166755   0.000000   # C_R
 241 1 5   0.000000   4.580624  13.050752  20.700400   # H_
 242 2 9   0.000000   2.534979  14.710960   0.000005   # O_3
 243 1 7   0.000000   3.817600  15.162743   0.000000   # C_R
 244 1 7   0.000000   4.243585  16.456748   0.000000   # C_R
 245 1 7   0.000000   5.537581  16.882763   0.000000   # C_R
 246 1 7   0.000000   6.533592  15.887774   0.000000   # C_R
 247 1 5   0.000000   7.649589  16.119787   0.000000   # H_
 248 1 5   0.000000   5.769568  17.998766   0.000000   # H_
 249 1 8   0.000000   3.528560  18.727740   0.000000   # O_1
 250 1 6   0.000000   3.179573  17.520736   0.000000   # C_2
 251 1 8   0.000000   1.972577  17.171723   0.000000   # O_1
 252 2 5   0.000000   2.549408  13.746166   0.000121   # H_
 253 1 6   0.000000  17.520819  17.520819   0.000000   # C_2
 254 1 8   0.000000  18.727815  17.171805  20.700400   # O_1
 255 1 8   0.000000  17.171832  18.727823   0.000000   # O_1
 256 1 7   0.000000  16.456806  16.456831   0.000000   # C_R
 257 1 7   0.000000  15.162811  16.883845   0.000000   # C_R
 258 1 5   0.000000  14.930824  17.999848   0.000000   # H_
 259 2 9   0.000000  12.885179  16.339640  20.700395   # O_3
 260 1 7   0.000000  14.167800  15.887857   0.000000   # C_R
 261 1 7   0.000000  14.593785  14.593852   0.000000   # C_R
 262 1 7   0.000000  15.887781  14.167837  20.700400   # C_R
 263 1 7   0.000000  16.883792  15.162826  20.700400   # C_R
 264 1 5   0.000000  17.999789  14.930813  20.700400   # H_
 265 1 5   0.000000  16.119768  13.051834  20.700400   # H_
 266 1 8   0.000000  13.878760  12.322860  20.700400   # O_1
 267 1 6   0.000000  13.529773  13.529864   0.000000   # C_2
 268 1 8   0.000000  12.322777  13.878877   0.000000   # O_1
 269 2 5   0.000000  12.899608  17.304434  20.700279   # H_
 270 1 6   0.000000  17.520819   7.170619  10.350200   # C_2
 271 1 8   0.000000  18.727815   6.821605  10.350200   # O_1
 272 1 8   0.000000  17.171832   8.377623  10.350200   # O_1
 273 1 7   0.000000  16.456806   6.106631  10.350200   # C_R
 274 1 7   0.000000  15.162811   6.533645  10.350200   # C_R
 275 1 5   0.000000  14.930824   7.649648  10.350200   # H_
 276 2 9   0.000000  12.885179   5.989440  10.350195   # O_3
 277 1 7   0.000000  14.167800   5.537657  10.350200   # C_R
 278 1 7   0.000000  14.593785   4.243652  10.350200   # C_R
 279 1 7   0.000000  15.887781   3.817637  10.350200   # C_R
 280 1 7   0.000000  16.883792   4.812626  10.350200   # C_R
 281 1 5   0.000000  17.999789   4.580613  10.350200   # H_
 282 1 5   0.000000  16.119768   2.701634  10.350200   # H_
 283 1 8   0.000000  13.878760   1.972660  10.350200   # O_1
 284 1 6   0.000000  13.529773   3.179664  10.350200   # C_2
 285 1 8   0.000000  12.322777   3.528677  10.350200   # O_1
 286 2 5   0.000000  12.899608   6.954234  10.350079   # H_
 287 1 6   0.000000   7.170619  17.520819  10.350200   # C_2
 288 1 8   0.000000   8.377615  17.171805  10.350200   # O_1
 289 1 8   0.000000   6.821632  18.727823  10.350200   # O_1
 290 1 7   0.000000   6.106606  16.456831  10.350200   # C_R
 291 1 7   0.000000   4.812611  16.883845  10.350200   # C_R
 292 1 5   0.000000   4.580624  17.999848  10.350200   # H_
 293 2 9   0.000000   2.534979  16.339640  10.350195   # O_3
 294 1 7   0.000000   3.817600  15.887857  10.350200   # C_R
 295 1 7   0.000000   4.243585  14.593852  10.350200   # C_R
 296 1 7   0.000000   5.537581  14.167837  10.350200   # C_R
 297 1 7   0.000000   6.533592  15.162826  10.350200   # C_R
 298 1 5   0.000000   7.649589  14.930813  10.350200   # H_
 299 1 5   0.000000   5.769568  13.051834  10.350200   # H_
 300 1 8   0.000000   3.528560  12.322860  10.350200   # O_1
 301 1 6   0.000000   3.179573  13.529864  10.350200   # C_2
 302 1 8   0.000000   1.972577  13.878877  10.350200   # O_1
 303 2 5   0.000000   2.549408  17.304434  10.350079   # H_
 304 1 6   0.000000   7.170619   7.170619   0.000000   # C_2
 305 1 8   0.000000   8.377615   6.821605  20.700400   # O_1
 306 1 8   0.000000   6.821632   8.377623   0.000000   # O_1
 307 1 7   0.000000   6.106606   6.106631   0.000000   # C_R
 308 1 7   0.000000   4.812611   6.533645   0.000000   # C_R
 309 1 5   0.000000   4.580624   7.649648   0.000000   # H_
 310 2 9   0.000000   2.534979   5.989440  20.700395   # O_3
 311 1 7   0.000000   3.817600   5.537657   0.000000   # C_R
 312 1 7   0.000000   4.243585   4.243652   0.000000   # C_R
 313 1 7   0.000000   5.537581   3.817637   0.000000   # C_R
 314 1 7   0.000000   6.533592   4.812626  20.700400   # C_R
 315 1 5   0.000000   7.649589   4.580613   0.000000   # H_
 316 1 5   0.000000   5.769568   2.701634  20.700400   # H_
 317 1 8   0.000000   3.528560   1.972660   0.000000   # O_1
 318 1 6   0.000000   3.179573   3.179664   0.000000   # C_2
 319 1 8   0.000000   1.972577   3.528677   0.000000   # O_1
 320 2 5   0.000000   2.549408   6.954234  20.700279   # H_
 321 1 6   0.000000   0.000000  17.520819   3.179581   # C_2
 322 1 8   0.000000   0.000000  18.727815   3.528595   # O_1
 323 1 8   0.000000  20.700400  17.171832   1.972577   # O_1
 324 1 7   0.000000   0.000000  16.456806   4.243569   # C_R
 325 1 7   0.000000   0.000000  15.162811   3.816555   # C_R
 326 1 5   0.000000  20.700400  14.930824   2.700552   # H_
 327 2 9   0.000000   0.000005  12.885179   4.360760   # O_3
 328 1 7   0.000000   0.000000  14.167800   4.812543   # C_R
 329 1 7   0.000000   0.000000  14.593785   6.106548   # C_R
 330 1 7   0.000000   0.000000  15.887781   6.532563   # C_R
 331 1 7   0.000000   0.000000  16.883792   5.537574   # C_R
 332 1 5   0.000000   0.000000  17.999789   5.769587   # H_
 333 1 5   0.000000   0.000000  16.119768   7.648566   # H_
 334 1 8   0.000000   0.000000  13.878760   8.377540   # O_1
 335 1 6   0.000000   0.000000  13.529773   7.170536   # C_2
 336 1 8   0.000000   0.000000  12.322777   6.821523   # O_1
 337 2 5   0.000000   0.000121  12.899608   3.395966   # H_
 338 1 6   0.000000   0.000000   7.170619  13.529781   # C_2
 339 1 8   0.000000   0.000000   8.377615  13.878795   # O_1
 340 1 8   0.000000  20.700400   6.821632  12.322777   # O_1
 341 1 7   0.000000   0.000000   6.106606  14.593769   # C_R
 342 1 7   0.000000   0.000000   4.812611  14.166755   # C_R
 343 1 5   0.000000  20.700400   4.580624  13.050752   # H_
 344 2 9   0.000000   0.000005   2.534979  14.710960   # O_3
 345 1 7   0.000000   0.000000   3.817600  15.162743   # C_R
 346 1 7   0.000000   0.000000   4.243585  16.456748   # C_R
 347 1 7   0.000000   0.000000   5.537581  16.882763   # C_R
 348 1 7   0.000000   0.000000   6.533592  15.887774   # C_R
 349 1 5   0.000000   0.000000   7.649589  16.119787   # H_
 350 1 5   0.000000   0.000000   5.769568  17.998766   # H_
 351 1 8   0.000000   0.000000   3.528560  18.727740   # O_1
 352 1 6   0.000000   0.000000   3.179573  17.520736   # C_2
 353 1 8   0.000000   0.000000   1.972577  17.171723   # O_1
 354 2 5   0.000000   0.000121   2.549408  13.746166   # H_
 355 1 6   0.000000  10.350200  17.520819  13.529781   # C_2
 356 1 8   0.000000  10.350200  18.727815  13.878795   # O_1
 357 1 8   0.000000  10.350200  17.171832  12.322777   # O_1
 358 1 7   0.000000  10.350200  16.456806  14.593769   # C_R
 359 1 7   0.000000  10.350200  15.162811  14.166755   # C_R
 360 1 5   0.000000  10.350200  14.930824  13.050752   # H_
 361 2 9   0.000000  10.350205  12.885179  14.710960   # O_3
 362 1 7   0.000000  10.350200  14.167800  15.162743   # C_R
 363 1 7   0.000000  10.350200  14.593785  16.456748   # C_R
 364 1 7   0.000000  10.350200  15.887781  16.882763   # C_R
 365 1 7   0.000000  10.350200  16.883792  15.887774   # C_R
 366 1 5   0.000000  10.350200  17.999789  16.119787   # H_
 367 1 5   0.000000  10.350200  16.119768  17.998766   # H_
 368 1 8   0.000000  10.350200  13.878760  18.727740   # O_1
 369 1 6   0.000000  10.350200  13.529773  17.520736   # C_2
 370 1 8   0.000000  10.350200  12.322777  17.171723   # O_1
 371 2 5   0.000000  10.350321  12.899608  13.746166   # H_
 372 1 6   0.000000  10.350200   7.170619   3.179581   # C_2
 373 1 8   0.000000  10.350200   8.377615   3.528595   # O_1
 374 1 8   0.000000  10.350200   6.821632   1.972577   # O_1
 375 1 7   0.000000  10.350200   6.106606   4.243569   # C_R
 376 1 7   0.000000  10.350200   4.812611   3.816555   # C_R
 377 1 5   0.000000  10.350200   4.580624   2.700552   # H_
 378 2 9   0.000000  10.350205   2.534979   4.360760   # O_3
 379 1 7   0.000000  10.350200   3.817600   4.812543   # C_R
 380 1 7   0.000000  10.350200   4.243585   6.106548   # C_R
 381 1 7   0.000000  10.350200   5.537581   6.532563   # C_R
 382 1 7   0.000000  10.350200   6.533592   5.537574   # C_R
 383 1 5   0.000000  10.350200   7.649589   5.769587   # H_
 384 1 5   0.000000  10.350200   5.769568   7.648566   # H_
 385 1 8   0.000000  10.350200   3.528560   8.377540   # O_1
 386 1 6   0.000000  10.350200   3.179573   7.170536   # C_2
 387 1 8   0.000000  10.350200   1.972577   6.821523   # O_1
 388 2 5   0.000000  10.350321   2.549408   3.395966   # H_
 389 1 6   0.000000   0.000000  17.520819  17.520819   # C_2
 390 1 8   0.000000  20.700400  18.727815  17.171805   # O_1
 391 1 8   0.000000   0.000000  17.171832  18.727823   # O_1
 392 1 7   0.000000  20.700400  16.456806  16.456831   # C_R
 393 1 7   0.000000   0.000000  15.162811  16.883845   # C_R
 394 1 5   0.000000   0.000000  14.930824  17.999848   # H_
 395 2 9   0.000000  20.700395  12.885179  16.339640   # O_3
 396 1 7   0.000000   0.000000  14.167800  15.887857   # C_R
 397 1 7   0.000000   0.000000  14.593785  14.593852   # C_R
 398 1 7   0.000000  20.700400  15.887781  14.167837   # C_R
 399 1 7   0.000000   0.000000  16.883792  15.162826   # C_R
 400 1 5   0.000000  20.700400  17.999789  14.930813   # H_
 401 1 5   0.000000  20.700400  16.119768  13.051834   # H_
 402 1 8   0.000000   0.000000  13.878760  12.322860   # O_1
 403 1 6   0.000000   0.000000  13.529773  13.529864   # C_2
 404 1 8   0.000000   0.000000  12.322777  13.878877   # O_1
 405 2 5   0.000000  20.700279  12.899608  17.304434   # H_
 406 1 6   0.000000   0.000000   7.170619   7.170619   # C_2
 407 1 8   0.000000   0.000000   8.377615   6.821605   # O_1
 408 1 8   0.000000   0.000000   6.821632   8.377623   # O_1
 409 1 7   0.000000  20.700400   6.106606   6.106631   # C_R
 410 1 7   0.000000   0.000000   4.812611   6.533645   # C_R
 411 1 5   0.000000  20.700400   4.580624   7.649648   # H_
 412 2 9   0.000000  20.700395   2.534979   5.989440   # O_3
 413 1 7   0.000000  20.700400   3.817600   5.537657   # C_R
 414 1 7   0.000000   0.000000   4.243585   4.243652   # C_R
 415 1 7   0.000000  20.700400   5.537581   3.817637   # C_R
 416 1 7   0.000000   0.000000   6.533592   4.812626   # C_R
 417 1 5   0.000000   0.000000   7.649589   4.580613   # H_
 418 1 5   0.000000   0.000000   5.769568   2.701634   # H_
 419 1 8   0.000000   0.000000   3.528560   1.972660   # O_1
 420 1 6   0.000000   0.000000   3.179573   3.179664   # C_2
 421 1 8   0.000000   0.000000   1.972577   3.528677   # O_1
 422 2 5   0.000000  20.700279   2.549408   6.954234   # H_
 423 1 6   0.000000  10.350200  17.520819   7.170619   # C_2
 424 1 8   0.000000  10.350200  18.727815   6.821605   # O_1
 425 1 8   0.000000  10.350200  17.171832   8.377623   # O_1
 426 1 7   0.000000  10.350200  16.456806   6.106631   # C_R
 427 1 7   0.000000  10.350200  15.162811   6.533645   # C_R
 428 1 5   0.000000  10.350200  14.930824   7.649648   # H_
 429 2 9   0.000000  10.350195  12.885179   5.989440   # O_3
 430 1 7   0.000000  10.350200  14.167800   5.537657   # C_R
 431 1 7   0.000000  10.350200  14.593785   4.243652   # C_R
 432 1 7   0.000000  10.350200  15.887781   3.817637   # C_R
 433 1 7   0.000000  10.350200  16.883792   4.812626   # C_R
 434 1 5   0.000000  10.350200  17.999789   4.580613   # H_
 435 1 5   0.000000  10.350200  16.119768   2.701634   # H_
 436 1 8   0.000000  10.350200  13.878760   1.972660   # O_1
 437 1 6   0.000000  10.350200  13.529773   3.179664   # C_2
 438 1 8   0.000000  10.350200  12.322777   3.528677   # O_1
 439 2 5   0.000000  10.350079  12.899608   6.954234   # H_
 440 1 6   0.000000  10.350200   7.170619  17.520819   # C_2
 441 1 8   0.000000  10.350200   8.377615  17.171805   # O_1
 442 1 8   0.000000  10.350200   6.821632  18.727823   # O_1
 443 1 7   0.000000  10.350200   6.106606  16.456831   # C_R
 444 1 7   0.000000  10.350200   4.812611  16.883845   # C_R
 445 1 5   0.000000  10.350200   4.580624  17.999848   # H_
 446 2 9   0.000000  10.350195   2.534979  16.339640   # O_3
 447 1 7   0.000000  10.350200   3.817600  15.887857   # C_R
 448 1 7   0.000000  10.350200   4.243585  14.593852   # C_R
 449 1 7   0.000000  10.350200   5.537581  14.167837   # C_R
 450 1 7   0.000000  10.350200   6.533592  15.162826   # C_R
 451 1 5   0.000000  10.350200   7.649589  14.930813   # H_
 452 1 5   0.000000  10.350200   5.769568  13.051834   # H_
 453 1 8   0.000000  10.350200   3.528560  12.322860   # O_1
 454 1 6   0.000000  10.350200   3.179573  13.529864   # C_2
 455 1 8   0.000000  10.350200   1.972577  13.878877   # O_1
 456 2 5   0.000000  10.350079   2.549408  17.304434   # H_

Bonds

 1 1 55 56   # O_3 C_R
 2 2 55 65   # O_3 H_
 3 1 72 73   # O_3 C_R
 4 2 72 82   # O_3 H_
 5 1 89 90   # O_3 C_R
 6 2 89 99   # O_3 H_
 7 1 106 107   # O_3 C_R
 8 2 106 116   # O_3 H_
 9 1 123 124   # O_3 C_R
 10 2 123 133   # O_3 H_
 11 1 140 141   # O_3 C_R
 12 2 140 150   # O_3 H_
 13 1 157 158   # O_3 C_R
 14 2 157 167   # O_3 H_
 15 1 174 175   # O_3 C_R
 16 2 174 184   # O_3 H_
 17 1 191 192   # O_3 C_R
 18 2 191 201   # O_3 H_
 19 1 208 209   # O_3 C_R
 20 2 208 218   # O_3 H_
 21 1 225 226   # O_3 C_R
 22 2 225 235   # O_3 H_
 23 1 242 243   # O_3 C_R
 24 2 242 252   # O_3 H_
 25 1 259 260   # O_3 C_R
 26 2 259 269   # O_3 H_
 27 1 276 277   # O_3 C_R
 28 2 276 286   # O_3 H_
 29 1 293 294   # O_3 C_R
 30 2 293 303   # O_3 H_
 31 1 310 311   # O_3 C_R
 32 2 310 320   # O_3 H_
 33 1 327 328   # O_3 C_R
 34 2 327 337   # O_3 H_
 35 1 344 345   # O_3 C_R
 36 2 344 354   # O_3 H_
 37 1 361 362   # O_3 C_R
 38 2 361 371   # O_3 H_
 39 1 378 379   # O_3 C_R
 40 2 378 388   # O_3 H_
 41 1 395 396   # O_3 C_R
 42 2 395 405   # O_3 H_
 43 1 412 413   # O_3 C_R
 44 2 412 422   # O_3 H_
 45 1 429 430   # O_3 C_R
 46 2 429 439   # O_3 H_
 47 1 446 447   # O_3 C_R