 (written by mofun)

1112 atoms
480 bonds
984 angles
1632 dihedrals
0 impropers

10 atom types
5 bond types
9 angle types
13 dihedral types
   0.000000  26.896000 xlo xhi
   0.000000  26.896000 ylo yhi
   0.000000  26.896000 zlo zhi

Masses

 1 91.2240   # Zr3+4
 2 15.9994   # O_3
 3 12.0107   # C_3
 4 1.0079   # H_
 5 1.0079   # H_
 6 12.0107   # C_2
 7 12.0107   # C_3
 8 12.0107   # C_R
 9 14.0067   # N_3
 10 15.9994   # O_1

Pair Coeffs

 1   0.069000   2.783168 # Zr3+4
 2   0.060000   3.118146 # O_3
 3   0.105000   3.430851 # C_3
 4   0.044000   2.571134 # H_
 5 0.044000 2.571134   # H_
 6 0.105000 3.430851   # C_2
 7 0.105000 3.430851   # C_3
 8 0.105000 3.430851   # C_R
 9 0.069000 3.260689   # N_3
 10 0.060000 3.118146   # O_1

Bond Coeffs

 1 560.312976 1.423192   # C_R N_3
 2 527.945261 1.044419   # H_ N_3
 3 528.634538 1.451071   # C_3 N_3
 4 349.795899 1.514000   # C_3 C_3
 5 331.069389 1.109401   # C_3 H_

Angle Coeffs

 1 cosine/periodic  282.369526  -1  3   # C_R C_R N_3
 2 fourier  150.574599  0.317506  0.313225  0.272502   # C_R N_3 H_
 3 fourier  268.482172  0.317506  0.313225  0.272502   # C_3 N_3 C_R
 4 fourier  144.695053  0.317506  0.313225  0.272502   # C_3 N_3 H_
 5 fourier  303.297032  0.343737  0.374972  0.281246   # C_3 C_3 N_3
 6 fourier  169.780468  0.343737  0.374972  0.281246   # H_ C_3 N_3
 7 fourier  214.211821  0.343737  0.374972  0.281246   # C_3 C_3 C_3
 8 fourier  117.318683  0.343737  0.374972  0.281246   # C_3 C_3 H_
 9 fourier  75.498766  0.343737  0.374972  0.281246   # H_ C_3 H_

Dihedral Coeffs

 1 harmonic 3.368555 -1 2   # C_R C_R C_R N_3 M=4
 2 harmonic 3.368555 -1 2   # H_ C_R C_R N_3 M=4
 3 harmonic 0.125000 -1 6   # C_R C_R N_3 H_ M=4
 4 harmonic 0.125000 -1 6   # C_3 N_3 C_R C_R M=4
 5 harmonic 0.081375 1 3   # C_3 C_3 N_3 C_R M=6
 6 harmonic 0.081375 1 3   # C_R N_3 C_3 H_ M=6
 7 harmonic 0.081375 1 3   # C_3 C_3 N_3 H_ M=6
 8 harmonic 0.081375 1 3   # H_ C_3 N_3 H_ M=6
 9 harmonic 0.117722 1 3   # H_ C_3 C_3 N_3 M=9
 10 harmonic 0.117722 1 3   # C_3 C_3 C_3 N_3 M=9
 11 harmonic 0.117722 1 3   # C_3 C_3 C_3 H_ M=9
 12 harmonic 0.117722 1 3   # C_3 C_3 C_3 C_3 M=9
 13 harmonic 0.117722 1 3   # H_ C_3 C_3 H_ M=9

Atoms

 1 1 1   0.000000   2.475508   0.000000   0.000000   # Zr3+4
 2 1 1   0.000000  24.420492   0.000000   0.000000   # Zr3+4
 3 1 1   0.000000   0.000000   2.475508   0.000000   # Zr3+4
 4 1 1   0.000000   0.000000  24.420492   0.000000   # Zr3+4
 5 1 1   0.000000   0.000000   0.000000   2.475508   # Zr3+4
 6 1 1   0.000000   0.000000   0.000000  24.420492   # Zr3+4
 7 1 1   0.000000   2.475508  13.448000  13.448000   # Zr3+4
 8 1 1   0.000000  24.420492  13.448000  13.448000   # Zr3+4
 9 1 1   0.000000   0.000000  15.923508  13.448000   # Zr3+4
 10 1 1   0.000000   0.000000  10.972492  13.448000   # Zr3+4
 11 1 1   0.000000   0.000000  13.448000  15.923508   # Zr3+4
 12 1 1   0.000000   0.000000  13.448000  10.972492   # Zr3+4
 13 1 1   0.000000  15.923508   0.000000  13.448000   # Zr3+4
 14 1 1   0.000000  10.972492   0.000000  13.448000   # Zr3+4
 15 1 1   0.000000  13.448000   2.475508  13.448000   # Zr3+4
 16 1 1   0.000000  13.448000  24.420492  13.448000   # Zr3+4
 17 1 1   0.000000  13.448000   0.000000  15.923508   # Zr3+4
 18 1 1   0.000000  13.448000   0.000000  10.972492   # Zr3+4
 19 1 1   0.000000  15.923508  13.448000   0.000000   # Zr3+4
 20 1 1   0.000000  10.972492  13.448000   0.000000   # Zr3+4
 21 1 1   0.000000  13.448000  15.923508   0.000000   # Zr3+4
 22 1 1   0.000000  13.448000  10.972492   0.000000   # Zr3+4
 23 1 1   0.000000  13.448000  13.448000   2.475508   # Zr3+4
 24 1 1   0.000000  13.448000  13.448000  24.420492   # Zr3+4
 25 1 2   0.000000   1.221078   1.221078   1.221078   # O_3
 26 1 2   0.000000  25.674922  25.674922   1.221078   # O_3
 27 1 2   0.000000  25.674922   1.221078  25.674922   # O_3
 28 1 2   0.000000   1.221078  25.674922  25.674922   # O_3
 29 1 2   0.000000   1.221078   1.221078  25.674922   # O_3
 30 1 2   0.000000  25.674922  25.674922  25.674922   # O_3
 31 1 2   0.000000   1.221078  25.674922   1.221078   # O_3
 32 1 2   0.000000  25.674922   1.221078   1.221078   # O_3
 33 1 2   0.000000   1.221078  14.669078  14.669078   # O_3
 34 1 2   0.000000  25.674922  12.226922  14.669078   # O_3
 35 1 2   0.000000  25.674922  14.669078  12.226922   # O_3
 36 1 2   0.000000   1.221078  12.226922  12.226922   # O_3
 37 1 2   0.000000   1.221078  14.669078  12.226922   # O_3
 38 1 2   0.000000  25.674922  12.226922  12.226922   # O_3
 39 1 2   0.000000   1.221078  12.226922  14.669078   # O_3
 40 1 2   0.000000  25.674922  14.669078  14.669078   # O_3
 41 1 2   0.000000  14.669078   1.221078  14.669078   # O_3
 42 1 2   0.000000  12.226922  25.674922  14.669078   # O_3
 43 1 2   0.000000  12.226922   1.221078  12.226922   # O_3
 44 1 2   0.000000  14.669078  25.674922  12.226922   # O_3
 45 1 2   0.000000  14.669078   1.221078  12.226922   # O_3
 46 1 2   0.000000  12.226922  25.674922  12.226922   # O_3
 47 1 2   0.000000  14.669078  25.674922  14.669078   # O_3
 48 1 2   0.000000  12.226922   1.221078  14.669078   # O_3
 49 1 2   0.000000  14.669078  14.669078   1.221078   # O_3
 50 1 2   0.000000  12.226922  12.226922   1.221078   # O_3
 51 1 2   0.000000  12.226922  14.669078  25.674922   # O_3
 52 1 2   0.000000  14.669078  12.226922  25.674922   # O_3
 53 1 2   0.000000  14.669078  14.669078  25.674922   # O_3
 54 1 2   0.000000  12.226922  12.226922  25.674922   # O_3
 55 1 2   0.000000  14.669078  12.226922   1.221078   # O_3
 56 1 2   0.000000  12.226922  14.669078   1.221078   # O_3
 57 1 10   0.000000   3.566410   0.000000   1.933822   # O_1
 58 1 6   0.000000   3.152211   0.000000   3.152223   # C_2
 59 1 10   0.000000   1.933811  26.896000   3.566424   # O_1
 60 1 8   0.000000   4.209211   0.000000   4.209222   # C_R
 61 1 8   0.000000   5.535211   0.000000   3.891921   # C_R
 62 1 8   0.000000   3.891912   0.000000   5.535222   # C_R
 63 1 8   0.000000   6.508812   0.000000   4.827820   # C_R
 64 1 5   0.000000   5.780010  26.896000   2.996221   # H_
 65 1 8   0.000000   4.827813  26.896000   6.508821   # C_R
 66 1 5   0.000000   2.996212  26.896000   5.780023   # H_
 67 1 8   0.000000   6.204913   0.000000   6.204920   # C_R
 68 1 8   0.000000   7.243114  26.896000   7.243120   # C_R
 69 1 5   0.000000   7.399112   0.000000   4.558920   # H_
 70 1 8   0.000000   8.620213   0.000000   6.939219   # C_R
 71 1 5   0.000000   4.558914   0.000000   7.399122   # H_
 72 1 8   0.000000   6.939215   0.000000   8.620220   # C_R
 73 1 8   0.000000   9.556114   0.000000   7.912818   # C_R
 74 2 9   0.000000   9.105584   0.301086   5.643013   # N_3
 75 1 8   0.000000   7.912815   0.000000   9.556119   # C_R
 76 1 5   0.000000   6.048915   0.000000   8.889121   # H_
 77 1 8   0.000000   9.238815  26.896000   9.238818   # C_R
 78 1 6   0.000000  10.295816  26.896000  10.295817   # C_2
 79 1 5   0.000000  10.451814   0.000000   7.668017   # H_
 80 1 5   0.000000   7.668016   0.000000  10.451819   # H_
 81 1 10   0.000000  11.514216   0.000000   9.881616   # O_1
 82 1 10   0.000000   9.881617   0.000000  11.514218   # O_1
 83 2 5   0.000000   8.920556   1.294841   5.493305   # H_
 84 2 7   0.000000  10.387257  26.809726   5.040240   # C_3
 85 2 7   0.000000  10.796296  25.356025   5.297386   # C_3
 86 2 5   0.000000  10.956550  25.164383   6.362908   # H_
 87 2 7   0.000000  12.086368  25.009890   4.552905   # C_3
 88 2 5   0.000000   9.995819  24.678266   4.976953   # H_
 89 2 7   0.000000  13.205796  25.998687   4.871521   # C_3
 90 2 5   0.000000  11.895902  25.010992   3.472576   # H_
 91 2 5   0.000000  12.403796  23.995431   4.819308   # H_
 92 2 7   0.000000  11.509493   0.923087   5.316603   # C_3
 93 2 7   0.000000  12.790161   0.541337   4.575610   # C_3
 94 2 5   0.000000  11.195602   1.926642   5.003749   # H_
 95 2 5   0.000000  10.198473  26.875129   3.958813   # H_
 96 2 5   0.000000  13.597391   1.225726   4.860286   # H_
 97 2 5   0.000000  12.636671   0.662409   3.496120   # H_
 98 2 5   0.000000  14.096148  25.746836   4.284449   # H_
 99 2 5   0.000000  13.483273  25.908785   5.928990   # H_
 100 2 5   0.000000  11.737101   0.995227   6.383893   # H_
 101 1 10   0.000000  23.329590   0.000000   1.933822   # O_1
 102 1 6   0.000000  23.743789   0.000000   3.152223   # C_2
 103 1 10   0.000000  24.962189   0.000000   3.566424   # O_1
 104 1 8   0.000000  22.686789   0.000000   4.209222   # C_R
 105 1 8   0.000000  21.360789  26.896000   3.891921   # C_R
 106 1 8   0.000000  23.004088   0.000000   5.535222   # C_R
 107 1 8   0.000000  20.387188  26.896000   4.827820   # C_R
 108 1 5   0.000000  21.115990  26.896000   2.996221   # H_
 109 1 8   0.000000  22.068187   0.000000   6.508821   # C_R
 110 1 5   0.000000  23.899788   0.000000   5.780023   # H_
 111 1 8   0.000000  20.691087   0.000000   6.204920   # C_R
 112 1 8   0.000000  19.652886  26.896000   7.243120   # C_R
 113 1 5   0.000000  19.496888  26.896000   4.558920   # H_
 114 1 8   0.000000  18.275787  26.896000   6.939219   # C_R
 115 1 5   0.000000  22.337086   0.000000   7.399122   # H_
 116 1 8   0.000000  19.956785   0.000000   8.620220   # C_R
 117 1 8   0.000000  17.339886  26.896000   7.912818   # C_R
 118 2 9   0.000000  17.790416  26.594914   5.643013   # N_3
 119 1 8   0.000000  18.983185   0.000000   9.556119   # C_R
 120 1 5   0.000000  20.847085   0.000000   8.889121   # H_
 121 1 8   0.000000  17.657185  26.896000   9.238818   # C_R
 122 1 6   0.000000  16.600184  26.896000  10.295817   # C_2
 123 1 5   0.000000  16.444186  26.896000   7.668017   # H_
 124 1 5   0.000000  19.227984   0.000000  10.451819   # H_
 125 1 10   0.000000  15.381784  26.896000   9.881616   # O_1
 126 1 10   0.000000  17.014383  26.896000  11.514218   # O_1
 127 2 5   0.000000  17.975444  25.601159   5.493305   # H_
 128 2 7   0.000000  16.508743   0.086274   5.040240   # C_3
 129 2 7   0.000000  16.099704   1.539975   5.297386   # C_3
 130 2 5   0.000000  15.939450   1.731617   6.362908   # H_
 131 2 7   0.000000  14.809632   1.886110   4.552905   # C_3
 132 2 5   0.000000  16.900181   2.217734   4.976953   # H_
 133 2 7   0.000000  13.690204   0.897313   4.871521   # C_3
 134 2 5   0.000000  15.000098   1.885008   3.472576   # H_
 135 2 5   0.000000  14.492204   2.900569   4.819308   # H_
 136 2 7   0.000000  15.386507  25.972913   5.316603   # C_3
 137 2 7   0.000000  14.105839  26.354663   4.575610   # C_3
 138 2 5   0.000000  15.700398  24.969358   5.003749   # H_
 139 2 5   0.000000  16.697527   0.020871   3.958813   # H_
 140 2 5   0.000000  13.298609  25.670274   4.860286   # H_
 141 2 5   0.000000  14.259329  26.233591   3.496120   # H_
 142 2 5   0.000000  12.799852   1.149164   4.284449   # H_
 143 2 5   0.000000  13.412727   0.987215   5.928990   # H_
 144 2 5   0.000000  15.158899  25.900773   6.383893   # H_
 145 1 10   0.000000  23.329590   0.000000  24.962178   # O_1
 146 1 6   0.000000  23.743789   0.000000  23.743777   # C_2
 147 1 10   0.000000  24.962189   0.000000  23.329576   # O_1
 148 1 8   0.000000  22.686789   0.000000  22.686778   # C_R
 149 1 8   0.000000  21.360789  26.896000  23.004079   # C_R
 150 1 8   0.000000  23.004088   0.000000  21.360778   # C_R
 151 1 8   0.000000  20.387188  26.896000  22.068180   # C_R
 152 1 5   0.000000  21.115990  26.896000  23.899779   # H_
 153 1 8   0.000000  22.068187   0.000000  20.387179   # C_R
 154 1 5   0.000000  23.899788   0.000000  21.115977   # H_
 155 1 8   0.000000  20.691087   0.000000  20.691080   # C_R
 156 1 8   0.000000  19.652886  26.896000  19.652880   # C_R
 157 1 5   0.000000  19.496888  26.896000  22.337080   # H_
 158 1 8   0.000000  18.275787  26.896000  19.956781   # C_R
 159 1 5   0.000000  22.337086   0.000000  19.496878   # H_
 160 1 8   0.000000  19.956785   0.000000  18.275780   # C_R
 161 1 8   0.000000  17.339886  26.896000  18.983182   # C_R
 162 2 9   0.000000  17.790416   0.301086  21.252987   # N_3
 163 1 8   0.000000  18.983185   0.000000  17.339881   # C_R
 164 1 5   0.000000  20.847085   0.000000  18.006879   # H_
 165 1 8   0.000000  17.657185  26.896000  17.657182   # C_R
 166 1 6   0.000000  16.600184  26.896000  16.600183   # C_2
 167 1 5   0.000000  16.444186  26.896000  19.227983   # H_
 168 1 5   0.000000  19.227984   0.000000  16.444181   # H_
 169 1 10   0.000000  15.381784  26.896000  17.014384   # O_1
 170 1 10   0.000000  17.014383  26.896000  15.381782   # O_1
 171 2 5   0.000000  17.975444   1.294841  21.402695   # H_
 172 2 7   0.000000  16.508743  26.809726  21.855760   # C_3
 173 2 7   0.000000  16.099704  25.356025  21.598614   # C_3
 174 2 5   0.000000  15.939450  25.164383  20.533092   # H_
 175 2 7   0.000000  14.809632  25.009890  22.343095   # C_3
 176 2 5   0.000000  16.900181  24.678266  21.919047   # H_
 177 2 7   0.000000  13.690204  25.998687  22.024479   # C_3
 178 2 5   0.000000  15.000098  25.010992  23.423424   # H_
 179 2 5   0.000000  14.492204  23.995431  22.076692   # H_
 180 2 7   0.000000  15.386507   0.923087  21.579397   # C_3
 181 2 7   0.000000  14.105839   0.541337  22.320390   # C_3
 182 2 5   0.000000  15.700398   1.926642  21.892251   # H_
 183 2 5   0.000000  16.697527  26.875129  22.937187   # H_
 184 2 5   0.000000  13.298609   1.225726  22.035714   # H_
 185 2 5   0.000000  14.259329   0.662409  23.399880   # H_
 186 2 5   0.000000  12.799852  25.746836  22.611551   # H_
 187 2 5   0.000000  13.412727  25.908785  20.967010   # H_
 188 2 5   0.000000  15.158899   0.995227  20.512107   # H_
 189 1 10   0.000000   3.566410   0.000000  24.962178   # O_1
 190 1 6   0.000000   3.152211   0.000000  23.743777   # C_2
 191 1 10   0.000000   1.933811   0.000000  23.329576   # O_1
 192 1 8   0.000000   4.209211   0.000000  22.686778   # C_R
 193 1 8   0.000000   5.535211   0.000000  23.004079   # C_R
 194 1 8   0.000000   3.891912   0.000000  21.360778   # C_R
 195 1 8   0.000000   6.508812   0.000000  22.068180   # C_R
 196 1 5   0.000000   5.780010   0.000000  23.899779   # H_
 197 1 8   0.000000   4.827813   0.000000  20.387179   # C_R
 198 1 5   0.000000   2.996212   0.000000  21.115977   # H_
 199 1 8   0.000000   6.204913   0.000000  20.691080   # C_R
 200 1 8   0.000000   7.243114   0.000000  19.652880   # C_R
 201 1 5   0.000000   7.399112   0.000000  22.337080   # H_
 202 1 8   0.000000   8.620213   0.000000  19.956781   # C_R
 203 1 5   0.000000   4.558914   0.000000  19.496878   # H_
 204 1 8   0.000000   6.939215   0.000000  18.275780   # C_R
 205 1 8   0.000000   9.556114   0.000000  18.983182   # C_R
 206 2 9   0.000000   9.105584  26.594914  21.252987   # N_3
 207 1 8   0.000000   7.912815   0.000000  17.339881   # C_R
 208 1 5   0.000000   6.048915   0.000000  18.006879   # H_
 209 1 8   0.000000   9.238815   0.000000  17.657182   # C_R
 210 1 6   0.000000  10.295816   0.000000  16.600183   # C_2
 211 1 5   0.000000  10.451814   0.000000  19.227983   # H_
 212 1 5   0.000000   7.668016   0.000000  16.444181   # H_
 213 1 10   0.000000  11.514216   0.000000  17.014384   # O_1
 214 1 10   0.000000   9.881617   0.000000  15.381782   # O_1
 215 2 5   0.000000   8.920556  25.601159  21.402695   # H_
 216 2 7   0.000000  10.387257   0.086274  21.855760   # C_3
 217 2 7   0.000000  10.796296   1.539975  21.598614   # C_3
 218 2 5   0.000000  10.956550   1.731617  20.533092   # H_
 219 2 7   0.000000  12.086368   1.886110  22.343095   # C_3
 220 2 5   0.000000   9.995819   2.217734  21.919047   # H_
 221 2 7   0.000000  13.205796   0.897313  22.024479   # C_3
 222 2 5   0.000000  11.895902   1.885008  23.423424   # H_
 223 2 5   0.000000  12.403796   2.900569  22.076692   # H_
 224 2 7   0.000000  11.509493  25.972913  21.579397   # C_3
 225 2 7   0.000000  12.790161  26.354663  22.320390   # C_3
 226 2 5   0.000000  11.195602  24.969358  21.892251   # H_
 227 2 5   0.000000  10.198473   0.020871  22.937187   # H_
 228 2 5   0.000000  13.597391  25.670274  22.035714   # H_
 229 2 5   0.000000  12.636671  26.233591  23.399880   # H_
 230 2 5   0.000000  14.096148   1.149164  22.611551   # H_
 231 2 5   0.000000  13.483273   0.987215  20.967010   # H_
 232 2 5   0.000000  11.737101  25.900773  20.512107   # H_
 233 1 10   0.000000   1.933822   3.566410   0.000000   # O_1
 234 1 6   0.000000   3.152223   3.152211   0.000000   # C_2
 235 1 10   0.000000   3.566424   1.933811   0.000000   # O_1
 236 1 8   0.000000   4.209222   4.209211   0.000000   # C_R
 237 1 8   0.000000   3.891921   5.535211  26.896000   # C_R
 238 1 8   0.000000   5.535222   3.891912   0.000000   # C_R
 239 1 8   0.000000   4.827820   6.508812  26.896000   # C_R
 240 1 5   0.000000   2.996221   5.780010  26.896000   # H_
 241 1 8   0.000000   6.508821   4.827813   0.000000   # C_R
 242 1 5   0.000000   5.780023   2.996212   0.000000   # H_
 243 1 8   0.000000   6.204920   6.204913   0.000000   # C_R
 244 1 8   0.000000   7.243120   7.243114  26.896000   # C_R
 245 1 5   0.000000   4.558920   7.399112  26.896000   # H_
 246 1 8   0.000000   6.939219   8.620213  26.896000   # C_R
 247 1 5   0.000000   7.399122   4.558914   0.000000   # H_
 248 1 8   0.000000   8.620220   6.939215   0.000000   # C_R
 249 1 8   0.000000   7.912818   9.556114  26.896000   # C_R
 250 2 9   0.000000   5.643013   9.105584   0.301086   # N_3
 251 1 8   0.000000   9.556119   7.912815   0.000000   # C_R
 252 1 5   0.000000   8.889121   6.048915   0.000000   # H_
 253 1 8   0.000000   9.238818   9.238815  26.896000   # C_R
 254 1 6   0.000000  10.295817  10.295816  26.896000   # C_2
 255 1 5   0.000000   7.668017  10.451814  26.896000   # H_
 256 1 5   0.000000  10.451819   7.668016   0.000000   # H_
 257 1 10   0.000000   9.881616  11.514216  26.896000   # O_1
 258 1 10   0.000000  11.514218   9.881617  26.896000   # O_1
 259 2 5   0.000000   5.493305   8.920556   1.294841   # H_
 260 2 7   0.000000   5.040240  10.387257  26.809726   # C_3
 261 2 7   0.000000   5.297386  10.796296  25.356025   # C_3
 262 2 5   0.000000   6.362908  10.956550  25.164383   # H_
 263 2 7   0.000000   4.552905  12.086368  25.009890   # C_3
 264 2 5   0.000000   4.976953   9.995819  24.678266   # H_
 265 2 7   0.000000   4.871521  13.205796  25.998687   # C_3
 266 2 5   0.000000   3.472576  11.895902  25.010992   # H_
 267 2 5   0.000000   4.819308  12.403796  23.995431   # H_
 268 2 7   0.000000   5.316603  11.509493   0.923087   # C_3
 269 2 7   0.000000   4.575610  12.790161   0.541337   # C_3
 270 2 5   0.000000   5.003749  11.195602   1.926642   # H_
 271 2 5   0.000000   3.958813  10.198473  26.875129   # H_
 272 2 5   0.000000   4.860286  13.597391   1.225726   # H_
 273 2 5   0.000000   3.496120  12.636671   0.662409   # H_
 274 2 5   0.000000   4.284449  14.096148  25.746836   # H_
 275 2 5   0.000000   5.928990  13.483273  25.908785   # H_
 276 2 5   0.000000   6.383893  11.737101   0.995227   # H_
 277 1 10   0.000000   1.933822  23.329590   0.000000   # O_1
 278 1 6   0.000000   3.152223  23.743789   0.000000   # C_2
 279 1 10   0.000000   3.566424  24.962189   0.000000   # O_1
 280 1 8   0.000000   4.209222  22.686789   0.000000   # C_R
 281 1 8   0.000000   3.891921  21.360789   0.000000   # C_R
 282 1 8   0.000000   5.535222  23.004088   0.000000   # C_R
 283 1 8   0.000000   4.827820  20.387188   0.000000   # C_R
 284 1 5   0.000000   2.996221  21.115990   0.000000   # H_
 285 1 8   0.000000   6.508821  22.068187   0.000000   # C_R
 286 1 5   0.000000   5.780023  23.899788   0.000000   # H_
 287 1 8   0.000000   6.204920  20.691087   0.000000   # C_R
 288 1 8   0.000000   7.243120  19.652886   0.000000   # C_R
 289 1 5   0.000000   4.558920  19.496888   0.000000   # H_
 290 1 8   0.000000   6.939219  18.275787   0.000000   # C_R
 291 1 5   0.000000   7.399122  22.337086   0.000000   # H_
 292 1 8   0.000000   8.620220  19.956785   0.000000   # C_R
 293 1 8   0.000000   7.912818  17.339886   0.000000   # C_R
 294 2 9   0.000000   5.643013  17.790416  26.594914   # N_3
 295 1 8   0.000000   9.556119  18.983185   0.000000   # C_R
 296 1 5   0.000000   8.889121  20.847085   0.000000   # H_
 297 1 8   0.000000   9.238818  17.657185   0.000000   # C_R
 298 1 6   0.000000  10.295817  16.600184   0.000000   # C_2
 299 1 5   0.000000   7.668017  16.444186   0.000000   # H_
 300 1 5   0.000000  10.451819  19.227984   0.000000   # H_
 301 1 10   0.000000   9.881616  15.381784   0.000000   # O_1
 302 1 10   0.000000  11.514218  17.014383   0.000000   # O_1
 303 2 5   0.000000   5.493305  17.975444  25.601159   # H_
 304 2 7   0.000000   5.040240  16.508743   0.086274   # C_3
 305 2 7   0.000000   5.297386  16.099704   1.539975   # C_3
 306 2 5   0.000000   6.362908  15.939450   1.731617   # H_
 307 2 7   0.000000   4.552905  14.809632   1.886110   # C_3
 308 2 5   0.000000   4.976953  16.900181   2.217734   # H_
 309 2 7   0.000000   4.871521  13.690204   0.897313   # C_3
 310 2 5   0.000000   3.472576  15.000098   1.885008   # H_
 311 2 5   0.000000   4.819308  14.492204   2.900569   # H_
 312 2 7   0.000000   5.316603  15.386507  25.972913   # C_3
 313 2 7   0.000000   4.575610  14.105839  26.354663   # C_3
 314 2 5   0.000000   5.003749  15.700398  24.969358   # H_
 315 2 5   0.000000   3.958813  16.697527   0.020871   # H_
 316 2 5   0.000000   4.860286  13.298609  25.670274   # H_
 317 2 5   0.000000   3.496120  14.259329  26.233591   # H_
 318 2 5   0.000000   4.284449  12.799852   1.149164   # H_
 319 2 5   0.000000   5.928990  13.412727   0.987215   # H_
 320 2 5   0.000000   6.383893  15.158899  25.900773   # H_
 321 1 10   0.000000  24.962178  23.329590   0.000000   # O_1
 322 1 6   0.000000  23.743777  23.743789   0.000000   # C_2
 323 1 10   0.000000  23.329576  24.962189   0.000000   # O_1
 324 1 8   0.000000  22.686778  22.686789   0.000000   # C_R
 325 1 8   0.000000  23.004079  21.360789  26.896000   # C_R
 326 1 8   0.000000  21.360778  23.004088   0.000000   # C_R
 327 1 8   0.000000  22.068180  20.387188  26.896000   # C_R
 328 1 5   0.000000  23.899779  21.115990  26.896000   # H_
 329 1 8   0.000000  20.387179  22.068187   0.000000   # C_R
 330 1 5   0.000000  21.115977  23.899788   0.000000   # H_
 331 1 8   0.000000  20.691080  20.691087   0.000000   # C_R
 332 1 8   0.000000  19.652880  19.652886  26.896000   # C_R
 333 1 5   0.000000  22.337080  19.496888  26.896000   # H_
 334 1 8   0.000000  19.956781  18.275787  26.896000   # C_R
 335 1 5   0.000000  19.496878  22.337086   0.000000   # H_
 336 1 8   0.000000  18.275780  19.956785   0.000000   # C_R
 337 1 8   0.000000  18.983182  17.339886  26.896000   # C_R
 338 2 9   0.000000  21.252987  17.790416   0.301086   # N_3
 339 1 8   0.000000  17.339881  18.983185   0.000000   # C_R
 340 1 5   0.000000  18.006879  20.847085   0.000000   # H_
 341 1 8   0.000000  17.657182  17.657185  26.896000   # C_R
 342 1 6   0.000000  16.600183  16.600184  26.896000   # C_2
 343 1 5   0.000000  19.227983  16.444186  26.896000   # H_
 344 1 5   0.000000  16.444181  19.227984   0.000000   # H_
 345 1 10   0.000000  17.014384  15.381784  26.896000   # O_1
 346 1 10   0.000000  15.381782  17.014383   0.000000   # O_1
 347 2 5   0.000000  21.402695  17.975444   1.294841   # H_
 348 2 7   0.000000  21.855760  16.508743  26.809726   # C_3
 349 2 7   0.000000  21.598614  16.099704  25.356025   # C_3
 350 2 5   0.000000  20.533092  15.939450  25.164383   # H_
 351 2 7   0.000000  22.343095  14.809632  25.009890   # C_3
 352 2 5   0.000000  21.919047  16.900181  24.678266   # H_
 353 2 7   0.000000  22.024479  13.690204  25.998687   # C_3
 354 2 5   0.000000  23.423424  15.000098  25.010992   # H_
 355 2 5   0.000000  22.076692  14.492204  23.995431   # H_
 356 2 7   0.000000  21.579397  15.386507   0.923087   # C_3
 357 2 7   0.000000  22.320390  14.105839   0.541337   # C_3
 358 2 5   0.000000  21.892251  15.700398   1.926642   # H_
 359 2 5   0.000000  22.937187  16.697527  26.875129   # H_
 360 2 5   0.000000  22.035714  13.298609   1.225726   # H_
 361 2 5   0.000000  23.399880  14.259329   0.662409   # H_
 362 2 5   0.000000  22.611551  12.799852  25.746836   # H_
 363 2 5   0.000000  20.967010  13.412727  25.908785   # H_
 364 2 5   0.000000  20.512107  15.158899   0.995227   # H_
 365 1 10   0.000000  24.962178   3.566410   0.000000   # O_1
 366 1 6   0.000000  23.743777   3.152211   0.000000   # C_2
 367 1 10   0.000000  23.329576   1.933811   0.000000   # O_1
 368 1 8   0.000000  22.686778   4.209211   0.000000   # C_R
 369 1 8   0.000000  23.004079   5.535211   0.000000   # C_R
 370 1 8   0.000000  21.360778   3.891912   0.000000   # C_R
 371 1 8   0.000000  22.068180   6.508812   0.000000   # C_R
 372 1 5   0.000000  23.899779   5.780010   0.000000   # H_
 373 1 8   0.000000  20.387179   4.827813   0.000000   # C_R
 374 1 5   0.000000  21.115977   2.996212   0.000000   # H_
 375 1 8   0.000000  20.691080   6.204913   0.000000   # C_R
 376 1 8   0.000000  19.652880   7.243114   0.000000   # C_R
 377 1 5   0.000000  22.337080   7.399112   0.000000   # H_
 378 1 8   0.000000  19.956781   8.620213   0.000000   # C_R
 379 1 5   0.000000  19.496878   4.558914   0.000000   # H_
 380 1 8   0.000000  18.275780   6.939215   0.000000   # C_R
 381 1 8   0.000000  18.983182   9.556114   0.000000   # C_R
 382 2 9   0.000000  21.252987   9.105584  26.594914   # N_3
 383 1 8   0.000000  17.339881   7.912815   0.000000   # C_R
 384 1 5   0.000000  18.006879   6.048915   0.000000   # H_
 385 1 8   0.000000  17.657182   9.238815   0.000000   # C_R
 386 1 6   0.000000  16.600183  10.295816   0.000000   # C_2
 387 1 5   0.000000  19.227983  10.451814   0.000000   # H_
 388 1 5   0.000000  16.444181   7.668016   0.000000   # H_
 389 1 10   0.000000  17.014384  11.514216   0.000000   # O_1
 390 1 10   0.000000  15.381782   9.881617   0.000000   # O_1
 391 2 5   0.000000  21.402695   8.920556  25.601159   # H_
 392 2 7   0.000000  21.855760  10.387257   0.086274   # C_3
 393 2 7   0.000000  21.598614  10.796296   1.539975   # C_3
 394 2 5   0.000000  20.533092  10.956550   1.731617   # H_
 395 2 7   0.000000  22.343095  12.086368   1.886110   # C_3
 396 2 5   0.000000  21.919047   9.995819   2.217734   # H_
 397 2 7   0.000000  22.024479  13.205796   0.897313   # C_3
 398 2 5   0.000000  23.423424  11.895902   1.885008   # H_
 399 2 5   0.000000  22.076692  12.403796   2.900569   # H_
 400 2 7   0.000000  21.579397  11.509493  25.972913   # C_3
 401 2 7   0.000000  22.320390  12.790161  26.354663   # C_3
 402 2 5   0.000000  21.892251  11.195602  24.969358   # H_
 403 2 5   0.000000  22.937187  10.198473   0.020871   # H_
 404 2 5   0.000000  22.035714  13.597391  25.670274   # H_
 405 2 5   0.000000  23.399880  12.636671  26.233591   # H_
 406 2 5   0.000000  22.611551  14.096148   1.149164   # H_
 407 2 5   0.000000  20.967010  13.483273   0.987215   # H_
 408 2 5   0.000000  20.512107  11.737101  25.900773   # H_
 409 1 10   0.000000   0.000000   1.933822   3.566410   # O_1
 410 1 6   0.000000   0.000000   3.152223   3.152211   # C_2
 411 1 10   0.000000   0.000000   3.566424   1.933811   # O_1
 412 1 8   0.000000   0.000000   4.209222   4.209211   # C_R
 413 1 8   0.000000   0.000000   3.891921   5.535211   # C_R
 414 1 8   0.000000   0.000000   5.535222   3.891912   # C_R
 415 1 8   0.000000   0.000000   4.827820   6.508812   # C_R
 416 1 5   0.000000   0.000000   2.996221   5.780010   # H_
 417 1 8   0.000000   0.000000   6.508821   4.827813   # C_R
 418 1 5   0.000000   0.000000   5.780023   2.996212   # H_
 419 1 8   0.000000   0.000000   6.204920   6.204913   # C_R
 420 1 8   0.000000   0.000000   7.243120   7.243114   # C_R
 421 1 5   0.000000   0.000000   4.558920   7.399112   # H_
 422 1 8   0.000000   0.000000   6.939219   8.620213   # C_R
 423 1 5   0.000000   0.000000   7.399122   4.558914   # H_
 424 1 8   0.000000   0.000000   8.620220   6.939215   # C_R
 425 1 8   0.000000   0.000000   7.912818   9.556114   # C_R
 426 2 9   0.000000   0.301086   5.643013   9.105584   # N_3
 427 1 8   0.000000   0.000000   9.556119   7.912815   # C_R
 428 1 5   0.000000   0.000000   8.889121   6.048915   # H_
 429 1 8   0.000000   0.000000   9.238818   9.238815   # C_R
 430 1 6   0.000000   0.000000  10.295817  10.295816   # C_2
 431 1 5   0.000000   0.000000   7.668017  10.451814   # H_
 432 1 5   0.000000   0.000000  10.451819   7.668016   # H_
 433 1 10   0.000000   0.000000   9.881616  11.514216   # O_1
 434 1 10   0.000000   0.000000  11.514218   9.881617   # O_1
 435 2 5   0.000000   1.294841   5.493305   8.920556   # H_
 436 2 7   0.000000  26.809726   5.040240  10.387257   # C_3
 437 2 7   0.000000  25.356025   5.297386  10.796296   # C_3
 438 2 5   0.000000  25.164383   6.362908  10.956550   # H_
 439 2 7   0.000000  25.009890   4.552905  12.086368   # C_3
 440 2 5   0.000000  24.678266   4.976953   9.995819   # H_
 441 2 7   0.000000  25.998687   4.871521  13.205796   # C_3
 442 2 5   0.000000  25.010992   3.472576  11.895902   # H_
 443 2 5   0.000000  23.995431   4.819308  12.403796   # H_
 444 2 7   0.000000   0.923087   5.316603  11.509493   # C_3
 445 2 7   0.000000   0.541337   4.575610  12.790161   # C_3
 446 2 5   0.000000   1.926642   5.003749  11.195602   # H_
 447 2 5   0.000000  26.875129   3.958813  10.198473   # H_
 448 2 5   0.000000   1.225726   4.860286  13.597391   # H_
 449 2 5   0.000000   0.662409   3.496120  12.636671   # H_
 450 2 5   0.000000  25.746836   4.284449  14.096148   # H_
 451 2 5   0.000000  25.908785   5.928990  13.483273   # H_
 452 2 5   0.000000   0.995227   6.383893  11.737101   # H_
 453 1 10   0.000000   0.000000   1.933822  23.329590   # O_1
 454 1 6   0.000000   0.000000   3.152223  23.743789   # C_2
 455 1 10   0.000000   0.000000   3.566424  24.962189   # O_1
 456 1 8   0.000000   0.000000   4.209222  22.686789   # C_R
 457 1 8   0.000000   0.000000   3.891921  21.360789   # C_R
 458 1 8   0.000000   0.000000   5.535222  23.004088   # C_R