 (written by mofun)

480 atoms
72 bonds
96 angles
144 dihedrals
0 impropers

10 atom types
3 bond types
3 angle types
4 dihedral types
   0.000000  20.700400 xlo xhi
   0.000000  20.700400 ylo yhi
   0.000000  20.700400 zlo zhi

Masses

 1 91.2240   # Zr3+4
 2 15.9994   # O_3
 3 12.0107   # C_3
 4 1.0079   # H_
 5 1.0079   # H_
 6 12.0107   # C_2
 7 12.0107   # C_R
 8 14.0067   # N_1
 9 14.0067   # N_2
 10 15.9994   # O_1

Pair Coeffs

 1   0.069000   2.783168 # Zr3+4
 2   0.060000   3.118146 # O_3
 3   0.105000   3.430851 # C_3
 4   0.044000   2.571134 # H_
 5 0.044000 2.571134   # H_
 6 0.105000 3.430851   # C_2
 7 0.105000 3.430851   # C_R
 8 0.069000 3.260689   # N_1
 9 0.069000 3.260689   # N_2
 10 0.060000 3.118146   # O_1

Bond Coeffs

 1 578.340382 1.408249   # C_R N_2
 2 1191.726198 1.217189   # N_1 N_2
 3 1272.510326 1.190867   # N_1 N_1

Angle Coeffs

 1 cosine/periodic  286.986588  -1  3   # C_R C_R N_2
 2 fourier  415.282267  0.362835  0.416030  0.287612   # C_R N_2 N_1
 3 cosine/periodic  307.808824  1  1   # N_1 N_1 N_2

Dihedral Coeffs

 1 harmonic 3.368555 -1 2   # C_2 C_R C_R N_2 M=4
 2 harmonic 3.368555 -1 2   # C_R C_R C_R N_2 M=4
 3 harmonic 2.500000 -1 2   # C_R C_R N_2 N_1 M=2
 4 harmonic 3.368555 -1 2   # H_ C_R C_R N_2 M=4

Atoms

 1 1 1   0.000000   2.481771   0.000000   0.000000   # Zr3+4
 2 1 1   0.000000   2.481771  10.350200  10.350200   # Zr3+4
 3 1 1   0.000000  12.831971   0.000000  10.350200   # Zr3+4
 4 1 1   0.000000  12.831971  10.350200   0.000000   # Zr3+4
 5 1 1   0.000000  18.218629   0.000000   0.000000   # Zr3+4
 6 1 1   0.000000  18.218629  10.350200  10.350200   # Zr3+4
 7 1 1   0.000000   7.868429   0.000000  10.350200   # Zr3+4
 8 1 1   0.000000   7.868429  10.350200   0.000000   # Zr3+4
 9 1 1   0.000000   0.000000   2.481771   0.000000   # Zr3+4
 10 1 1   0.000000   0.000000  12.831971  10.350200   # Zr3+4
 11 1 1   0.000000  10.350200   2.481771  10.350200   # Zr3+4
 12 1 1   0.000000  10.350200  12.831971   0.000000   # Zr3+4
 13 1 1   0.000000   0.000000  18.218629   0.000000   # Zr3+4
 14 1 1   0.000000   0.000000   7.868429  10.350200   # Zr3+4
 15 1 1   0.000000  10.350200  18.218629  10.350200   # Zr3+4
 16 1 1   0.000000  10.350200   7.868429   0.000000   # Zr3+4
 17 1 1   0.000000   0.000000   0.000000   2.481771   # Zr3+4
 18 1 1   0.000000   0.000000  10.350200  12.831971   # Zr3+4
 19 1 1   0.000000  10.350200   0.000000  12.831971   # Zr3+4
 20 1 1   0.000000  10.350200  10.350200   2.481771   # Zr3+4
 21 1 1   0.000000   0.000000   0.000000  18.218629   # Zr3+4
 22 1 1   0.000000   0.000000  10.350200   7.868429   # Zr3+4
 23 1 1   0.000000  10.350200   0.000000   7.868429   # Zr3+4
 24 1 1   0.000000  10.350200  10.350200  18.218629   # Zr3+4
 25 1 2   0.000000   1.161292   9.188908   9.188908   # O_3
 26 1 2   0.000000  11.511492  19.539108   9.188908   # O_3
 27 1 2   0.000000  11.511492   9.188908  19.539108   # O_3
 28 1 2   0.000000   9.188908   1.161292   9.188908   # O_3
 29 1 2   0.000000   9.188908  11.511492  19.539108   # O_3
 30 1 2   0.000000  19.539108  19.539108   1.161292   # O_3
 31 1 2   0.000000  19.539108   9.188908  11.511492   # O_3
 32 1 2   0.000000   1.161292   1.161292   1.161292   # O_3
 33 1 2   0.000000  11.511492  11.511492   1.161292   # O_3
 34 1 2   0.000000  19.539108   1.161292   1.161292   # O_3
 35 1 2   0.000000  19.539108  11.511492  11.511492   # O_3
 36 1 2   0.000000   9.188908   1.161292  11.511492   # O_3
 37 1 2   0.000000   9.188908  11.511492   1.161292   # O_3
 38 1 2   0.000000   1.161292  19.539108   1.161292   # O_3
 39 1 2   0.000000   1.161292   9.188908  11.511492   # O_3
 40 1 2   0.000000  11.511492  19.539108  11.511492   # O_3
 41 1 2   0.000000  11.511492   9.188908   1.161292   # O_3
 42 1 2   0.000000  19.539108  19.539108  19.539108   # O_3
 43 1 2   0.000000  19.539108   9.188908   9.188908   # O_3
 44 1 2   0.000000   9.188908  19.539108   9.188908   # O_3
 45 1 2   0.000000   9.188908   9.188908  19.539108   # O_3
 46 1 2   0.000000   1.161292   1.161292  19.539108   # O_3
 47 1 2   0.000000   1.161292  11.511492   9.188908   # O_3
 48 1 2   0.000000  11.511492   1.161292   9.188908   # O_3
 49 1 6   0.000000   3.179581   0.000000  17.520819   # C_2
 50 1 10   0.000000   3.528595   0.000000  18.727815   # O_1
 51 1 10   0.000000   1.972577  20.700400  17.171832   # O_1
 52 1 7   0.000000   4.243569   0.000000  16.456806   # C_R
 53 1 7   0.000000   3.816555  20.700400  15.162811   # C_R
 54 2 9   0.000000   2.793727   0.812227  14.818086   # N_2
 55 1 5   0.000000   4.580531  20.700400  13.051803   # H_
 56 1 7   0.000000   4.812543  20.700400  14.167800   # C_R
 57 1 7   0.000000   6.106548   0.000000  14.593785   # C_R
 58 1 7   0.000000   6.532563   0.000000  15.887781   # C_R
 59 1 7   0.000000   5.537574   0.000000  16.883792   # C_R
 60 1 5   0.000000   5.769587   0.000000  17.999789   # H_
 61 1 5   0.000000   7.648566   0.000000  16.119768   # H_
 62 1 10   0.000000   8.377540   0.000000  13.878760   # O_1
 63 1 6   0.000000   7.170536   0.000000  13.529773   # C_2
 64 1 10   0.000000   6.821523  20.700400  12.322777   # O_1
 65 2 8   0.000000   2.140905  20.630039  14.378912   # N_1
 66 2 8   0.000000   1.463971  19.844454  13.884614   # N_1
 67 1 6   0.000000   3.179581  10.350200   7.170619   # C_2
 68 1 10   0.000000   3.528595  10.350200   8.377615   # O_1
 69 1 10   0.000000   1.972577  10.350200   6.821632   # O_1
 70 1 7   0.000000   4.243569  10.350200   6.106606   # C_R
 71 1 7   0.000000   3.816555  10.350200   4.812611   # C_R
 72 2 9   0.000000   2.793727  11.162427   4.467886   # N_2
 73 1 5   0.000000   4.580531  10.350200   2.701603   # H_
 74 1 7   0.000000   4.812543  10.350200   3.817600   # C_R
 75 1 7   0.000000   6.106548  10.350200   4.243585   # C_R
 76 1 7   0.000000   6.532563  10.350200   5.537581   # C_R
 77 1 7   0.000000   5.537574  10.350200   6.533592   # C_R
 78 1 5   0.000000   5.769587  10.350200   7.649589   # H_
 79 1 5   0.000000   7.648566  10.350200   5.769568   # H_
 80 1 10   0.000000   8.377540  10.350200   3.528560   # O_1
 81 1 6   0.000000   7.170536  10.350200   3.179573   # C_2
 82 1 10   0.000000   6.821523  10.350200   1.972577   # O_1
 83 2 8   0.000000   2.140905  10.279839   4.028712   # N_1
 84 2 8   0.000000   1.463971   9.494254   3.534414   # N_1
 85 1 6   0.000000  13.529781   0.000000   7.170619   # C_2
 86 1 10   0.000000  13.878795   0.000000   8.377615   # O_1
 87 1 10   0.000000  12.322777  20.700400   6.821632   # O_1
 88 1 7   0.000000  14.593769   0.000000   6.106606   # C_R
 89 1 7   0.000000  14.166755  20.700400   4.812611   # C_R
 90 2 9   0.000000  13.143927   0.812227   4.467886   # N_2
 91 1 5   0.000000  14.930731  20.700400   2.701603   # H_
 92 1 7   0.000000  15.162743  20.700400   3.817600   # C_R
 93 1 7   0.000000  16.456748   0.000000   4.243585   # C_R
 94 1 7   0.000000  16.882763   0.000000   5.537581   # C_R
 95 1 7   0.000000  15.887774   0.000000   6.533592   # C_R
 96 1 5   0.000000  16.119787   0.000000   7.649589   # H_
 97 1 5   0.000000  17.998766   0.000000   5.769568   # H_
 98 1 10   0.000000  18.727740   0.000000   3.528560   # O_1
 99 1 6   0.000000  17.520736   0.000000   3.179573   # C_2
 100 1 10   0.000000  17.171723  20.700400   1.972577   # O_1
 101 2 8   0.000000  12.491105  20.630039   4.028712   # N_1
 102 2 8   0.000000  11.814171  19.844454   3.534414   # N_1
 103 1 6   0.000000  13.529781  10.350200  17.520819   # C_2
 104 1 10   0.000000  13.878795  10.350200  18.727815   # O_1
 105 1 10   0.000000  12.322777  10.350200  17.171832   # O_1
 106 1 7   0.000000  14.593769  10.350200  16.456806   # C_R
 107 1 7   0.000000  14.166755  10.350200  15.162811   # C_R
 108 2 9   0.000000  13.143927  11.162427  14.818086   # N_2
 109 1 5   0.000000  14.930731  10.350200  13.051803   # H_
 110 1 7   0.000000  15.162743  10.350200  14.167800   # C_R
 111 1 7   0.000000  16.456748  10.350200  14.593785   # C_R
 112 1 7   0.000000  16.882763  10.350200  15.887781   # C_R
 113 1 7   0.000000  15.887774  10.350200  16.883792   # C_R
 114 1 5   0.000000  16.119787  10.350200  17.999789   # H_
 115 1 5   0.000000  17.998766  10.350200  16.119768   # H_
 116 1 10   0.000000  18.727740  10.350200  13.878760   # O_1
 117 1 6   0.000000  17.520736  10.350200  13.529773   # C_2
 118 1 10   0.000000  17.171723  10.350200  12.322777   # O_1
 119 2 8   0.000000  12.491105  10.279839  14.378912   # N_1
 120 2 8   0.000000  11.814171   9.494254  13.884614   # N_1
 121 1 6   0.000000  17.520819   0.000000  17.520819   # C_2
 122 1 10   0.000000  17.171805   0.000000  18.727815   # O_1
 123 1 10   0.000000  18.727823   0.000000  17.171832   # O_1
 124 1 7   0.000000  16.456831   0.000000  16.456806   # C_R
 125 1 7   0.000000  16.883845   0.000000  15.162811   # C_R
 126 2 9   0.000000  17.906673  19.888173  14.818086   # N_2
 127 1 5   0.000000  16.119869   0.000000  13.051803   # H_
 128 1 7   0.000000  15.887857   0.000000  14.167800   # C_R
 129 1 7   0.000000  14.593852   0.000000  14.593785   # C_R
 130 1 7   0.000000  14.167837   0.000000  15.887781   # C_R
 131 1 7   0.000000  15.162826   0.000000  16.883792   # C_R
 132 1 5   0.000000  14.930813   0.000000  17.999789   # H_
 133 1 5   0.000000  13.051834   0.000000  16.119768   # H_
 134 1 10   0.000000  12.322860   0.000000  13.878760   # O_1
 135 1 6   0.000000  13.529864   0.000000  13.529773   # C_2
 136 1 10   0.000000  13.878877   0.000000  12.322777   # O_1
 137 2 8   0.000000  18.559495   0.070361  14.378912   # N_1
 138 2 8   0.000000  19.236429   0.855946  13.884614   # N_1
 139 1 6   0.000000  17.520819  10.350200   7.170619   # C_2
 140 1 10   0.000000  17.171805  10.350200   8.377615   # O_1
 141 1 10   0.000000  18.727823  10.350200   6.821632   # O_1
 142 1 7   0.000000  16.456831  10.350200   6.106606   # C_R
 143 1 7   0.000000  16.883845  10.350200   4.812611   # C_R
 144 2 9   0.000000  17.906673   9.537973   4.467886   # N_2
 145 1 5   0.000000  16.119869  10.350200   2.701603   # H_
 146 1 7   0.000000  15.887857  10.350200   3.817600   # C_R
 147 1 7   0.000000  14.593852  10.350200   4.243585   # C_R
 148 1 7   0.000000  14.167837  10.350200   5.537581   # C_R
 149 1 7   0.000000  15.162826  10.350200   6.533592   # C_R
 150 1 5   0.000000  14.930813  10.350200   7.649589   # H_
 151 1 5   0.000000  13.051834  10.350200   5.769568   # H_
 152 1 10   0.000000  12.322860  10.350200   3.528560   # O_1
 153 1 6   0.000000  13.529864  10.350200   3.179573   # C_2
 154 1 10   0.000000  13.878877  10.350200   1.972577   # O_1
 155 2 8   0.000000  18.559495  10.420561   4.028712   # N_1
 156 2 8   0.000000  19.236429  11.206146   3.534414   # N_1
 157 1 6   0.000000   7.170619   0.000000   7.170619   # C_2
 158 1 10   0.000000   6.821605   0.000000   8.377615   # O_1
 159 1 10   0.000000   8.377623   0.000000   6.821632   # O_1
 160 1 7   0.000000   6.106631   0.000000   6.106606   # C_R
 161 1 7   0.000000   6.533645   0.000000   4.812611   # C_R
 162 2 9   0.000000   7.556473  19.888173   4.467886   # N_2
 163 1 5   0.000000   5.769669   0.000000   2.701603   # H_
 164 1 7   0.000000   5.537657   0.000000   3.817600   # C_R
 165 1 7   0.000000   4.243652   0.000000   4.243585   # C_R
 166 1 7   0.000000   3.817637   0.000000   5.537581   # C_R
 167 1 7   0.000000   4.812626   0.000000   6.533592   # C_R
 168 1 5   0.000000   4.580613   0.000000   7.649589   # H_
 169 1 5   0.000000   2.701634   0.000000   5.769568   # H_
 170 1 10   0.000000   1.972660   0.000000   3.528560   # O_1
 171 1 6   0.000000   3.179664   0.000000   3.179573   # C_2
 172 1 10   0.000000   3.528677   0.000000   1.972577   # O_1
 173 2 8   0.000000   8.209295   0.070361   4.028712   # N_1
 174 2 8   0.000000   8.886229   0.855946   3.534414   # N_1
 175 1 6   0.000000   7.170619  10.350200  17.520819   # C_2
 176 1 10   0.000000   6.821605  10.350200  18.727815   # O_1
 177 1 10   0.000000   8.377623  10.350200  17.171832   # O_1
 178 1 7   0.000000   6.106631  10.350200  16.456806   # C_R
 179 1 7   0.000000   6.533645  10.350200  15.162811   # C_R
 180 2 9   0.000000   7.556473   9.537973  14.818086   # N_2
 181 1 5   0.000000   5.769669  10.350200  13.051803   # H_
 182 1 7   0.000000   5.537657  10.350200  14.167800   # C_R
 183 1 7   0.000000   4.243652  10.350200  14.593785   # C_R
 184 1 7   0.000000   3.817637  10.350200  15.887781   # C_R
 185 1 7   0.000000   4.812626  10.350200  16.883792   # C_R
 186 1 5   0.000000   4.580613  10.350200  17.999789   # H_
 187 1 5   0.000000   2.701634  10.350200  16.119768   # H_
 188 1 10   0.000000   1.972660  10.350200  13.878760   # O_1
 189 1 6   0.000000   3.179664  10.350200  13.529773   # C_2
 190 1 10   0.000000   3.528677  10.350200  12.322777   # O_1
 191 2 8   0.000000   8.209295  10.420561  14.378912   # N_1
 192 2 8   0.000000   8.886229  11.206146  13.884614   # N_1
 193 1 6   0.000000  17.520819   3.179581   0.000000   # C_2
 194 1 10   0.000000  18.727815   3.528595  20.700400   # O_1
 195 1 10   0.000000  17.171832   1.972577   0.000000   # O_1
 196 1 7   0.000000  16.456806   4.243569  20.700400   # C_R
 197 1 7   0.000000  15.162811   3.816555   0.000000   # C_R
 198 2 9   0.000000  14.818086   2.793727   0.812227   # N_2
 199 1 5   0.000000  13.051803   4.580531   0.000000   # H_
 200 1 7   0.000000  14.167800   4.812543   0.000000   # C_R
 201 1 7   0.000000  14.593785   6.106548  20.700400   # C_R
 202 1 7   0.000000  15.887781   6.532563  20.700400   # C_R
 203 1 7   0.000000  16.883792   5.537574  20.700400   # C_R
 204 1 5   0.000000  17.999789   5.769587  20.700400   # H_
 205 1 5   0.000000  16.119768   7.648566  20.700400   # H_
 206 1 10   0.000000  13.878760   8.377540  20.700400   # O_1
 207 1 6   0.000000  13.529773   7.170536  20.700400   # C_2
 208 1 10   0.000000  12.322777   6.821523   0.000000   # O_1
 209 2 8   0.000000  14.378912   2.140905  20.630039   # N_1
 210 2 8   0.000000  13.884614   1.463971  19.844454   # N_1
 211 1 6   0.000000  17.520819  13.529781  10.350200   # C_2
 212 1 10   0.000000  18.727815  13.878795  10.350200   # O_1
 213 1 10   0.000000  17.171832  12.322777  10.350200   # O_1
 214 1 7   0.000000  16.456806  14.593769  10.350200   # C_R
 215 1 7   0.000000  15.162811  14.166755  10.350200   # C_R
 216 2 9   0.000000  14.818086  13.143927  11.162427   # N_2
 217 1 5   0.000000  13.051803  14.930731  10.350200   # H_
 218 1 7   0.000000  14.167800  15.162743  10.350200   # C_R
 219 1 7   0.000000  14.593785  16.456748  10.350200   # C_R
 220 1 7   0.000000  15.887781  16.882763  10.350200   # C_R
 221 1 7   0.000000  16.883792  15.887774  10.350200   # C_R
 222 1 5   0.000000  17.999789  16.119787  10.350200   # H_
 223 1 5   0.000000  16.119768  17.998766  10.350200   # H_
 224 1 10   0.000000  13.878760  18.727740  10.350200   # O_1
 225 1 6   0.000000  13.529773  17.520736  10.350200   # C_2
 226 1 10   0.000000  12.322777  17.171723  10.350200   # O_1
 227 2 8   0.000000  14.378912  12.491105  10.279839   # N_1
 228 2 8   0.000000  13.884614  11.814171   9.494254   # N_1
 229 1 6   0.000000   7.170619   3.179581  10.350200   # C_2
 230 1 10   0.000000   8.377615   3.528595  10.350200   # O_1
 231 1 10   0.000000   6.821632   1.972577  10.350200   # O_1
 232 1 7   0.000000   6.106606   4.243569  10.350200   # C_R
 233 1 7   0.000000   4.812611   3.816555  10.350200   # C_R
 234 2 9   0.000000   4.467886   2.793727  11.162427   # N_2
 235 1 5   0.000000   2.701603   4.580531  10.350200   # H_
 236 1 7   0.000000   3.817600   4.812543  10.350200   # C_R
 237 1 7   0.000000   4.243585   6.106548  10.350200   # C_R
 238 1 7   0.000000   5.537581   6.532563  10.350200   # C_R
 239 1 7   0.000000   6.533592   5.537574  10.350200   # C_R
 240 1 5   0.000000   7.649589   5.769587  10.350200   # H_
 241 1 5   0.000000   5.769568   7.648566  10.350200   # H_
 242 1 10   0.000000   3.528560   8.377540  10.350200   # O_1
 243 1 6   0.000000   3.179573   7.170536  10.350200   # C_2
 244 1 10   0.000000   1.972577   6.821523  10.350200   # O_1
 245 2 8   0.000000   4.028712   2.140905  10.279839   # N_1
 246 2 8   0.000000   3.534414   1.463971   9.494254   # N_1
 247 1 6   0.000000   7.170619  13.529781   0.000000   # C_2
 248 1 10   0.000000   8.377615  13.878795   0.000000   # O_1
 249 1 10   0.000000   6.821632  12.322777  20.700400   # O_1
 250 1 7   0.000000   6.106606  14.593769   0.000000   # C_R
 251 1 7   0.000000   4.812611  14.166755   0.000000   # C_R
 252 2 9   0.000000   4.467886  13.143927   0.812227   # N_2
 253 1 5   0.000000   2.701603  14.930731   0.000000   # H_
 254 1 7   0.000000   3.817600  15.162743   0.000000   # C_R
 255 1 7   0.000000   4.243585  16.456748   0.000000   # C_R
 256 1 7   0.000000   5.537581  16.882763   0.000000   # C_R
 257 1 7   0.000000   6.533592  15.887774   0.000000   # C_R
 258 1 5   0.000000   7.649589  16.119787   0.000000   # H_
 259 1 5   0.000000   5.769568  17.998766   0.000000   # H_
 260 1 10   0.000000   3.528560  18.727740   0.000000   # O_1
 261 1 6   0.000000   3.179573  17.520736   0.000000   # C_2
 262 1 10   0.000000   1.972577  17.171723   0.000000   # O_1
 263 2 8   0.000000   4.028712  12.491105  20.630039   # N_1
 264 2 8   0.000000   3.534414  11.814171  19.844454   # N_1
 265 1 6   0.000000  17.520819  17.520819   0.000000   # C_2
 266 1 10   0.000000  18.727815  17.171805  20.700400   # O_1
 267 1 10   0.000000  17.171832  18.727823   0.000000   # O_1
 268 1 7   0.000000  16.456806  16.456831   0.000000   # C_R
 269 1 7   0.000000  15.162811  16.883845   0.000000   # C_R
 270 2 9   0.000000  14.818086  17.906673  19.888173   # N_2
 271 1 5   0.000000  13.051803  16.119869   0.000000   # H_
 272 1 7   0.000000  14.167800  15.887857   0.000000   # C_R
 273 1 7   0.000000  14.593785  14.593852   0.000000   # C_R
 274 1 7   0.000000  15.887781  14.167837  20.700400   # C_R
 275 1 7   0.000000  16.883792  15.162826  20.700400   # C_R
 276 1 5   0.000000  17.999789  14.930813  20.700400   # H_
 277 1 5   0.000000  16.119768  13.051834  20.700400   # H_
 278 1 10   0.000000  13.878760  12.322860  20.700400   # O_1
 279 1 6   0.000000  13.529773  13.529864   0.000000   # C_2
 280 1 10   0.000000  12.322777  13.878877   0.000000   # O_1
 281 2 8   0.000000  14.378912  18.559495   0.070361   # N_1
 282 2 8   0.000000  13.884614  19.236429   0.855946   # N_1
 283 1 6   0.000000  17.520819   7.170619  10.350200   # C_2
 284 1 10   0.000000  18.727815   6.821605  10.350200   # O_1
 285 1 10   0.000000  17.171832   8.377623  10.350200   # O_1
 286 1 7   0.000000  16.456806   6.106631  10.350200   # C_R
 287 1 7   0.000000  15.162811   6.533645  10.350200   # C_R
 288 2 9   0.000000  14.818086   7.556473   9.537973   # N_2
 289 1 5   0.000000  13.051803   5.769669  10.350200   # H_
 290 1 7   0.000000  14.167800   5.537657  10.350200   # C_R
 291 1 7   0.000000  14.593785   4.243652  10.350200   # C_R
 292 1 7   0.000000  15.887781   3.817637  10.350200   # C_R
 293 1 7   0.000000  16.883792   4.812626  10.350200   # C_R
 294 1 5   0.000000  17.999789   4.580613  10.350200   # H_
 295 1 5   0.000000  16.119768   2.701634  10.350200   # H_
 296 1 10   0.000000  13.878760   1.972660  10.350200   # O_1
 297 1 6   0.000000  13.529773   3.179664  10.350200   # C_2
 298 1 10   0.000000  12.322777   3.528677  10.350200   # O_1
 299 2 8   0.000000  14.378912   8.209295  10.420561   # N_1
 300 2 8   0.000000  13.884614   8.886229  11.206146   # N_1
 301 1 6   0.000000   7.170619  17.520819  10.350200   # C_2
 302 1 10   0.000000   8.377615  17.171805  10.350200   # O_1
 303 1 10   0.000000   6.821632  18.727823  10.350200   # O_1
 304 1 7   0.000000   6.106606  16.456831  10.350200   # C_R
 305 1 7   0.000000   4.812611  16.883845  10.350200   # C_R
 306 2 9   0.000000   4.467886  17.906673   9.537973   # N_2
 307 1 5   0.000000   2.701603  16.119869  10.350200   # H_
 308 1 7   0.000000   3.817600  15.887857  10.350200   # C_R
 309 1 7   0.000000   4.243585  14.593852  10.350200   # C_R
 310 1 7   0.000000   5.537581  14.167837  10.350200   # C_R
 311 1 7   0.000000   6.533592  15.162826  10.350200   # C_R
 312 1 5   0.000000   7.649589  14.930813  10.350200   # H_
 313 1 5   0.000000   5.769568  13.051834  10.350200   # H_
 314 1 10   0.000000   3.528560  12.322860  10.350200   # O_1
 315 1 6   0.000000   3.179573  13.529864  10.350200   # C_2
 316 1 10   0.000000   1.972577  13.878877  10.350200   # O_1
 317 2 8   0.000000   4.028712  18.559495  10.420561   # N_1
 318 2 8   0.000000   3.534414  19.236429  11.206146   # N_1
 319 1 6   0.000000   7.170619   7.170619   0.000000   # C_2
 320 1 10   0.000000   8.377615   6.821605  20.700400   # O_1
 321 1 10   0.000000   6.821632   8.377623   0.000000   # O_1
 322 1 7   0.000000   6.106606   6.106631   0.000000   # C_R
 323 1 7   0.000000   4.812611   6.533645   0.000000   # C_R
 324 2 9   0.000000   4.467886   7.556473  19.888173   # N_2
 325 1 5   0.000000   2.701603   5.769669   0.000000   # H_
 326 1 7   0.000000   3.817600   5.537657   0.000000   # C_R
 327 1 7   0.000000   4.243585   4.243652   0.000000   # C_R
 328 1 7   0.000000   5.537581   3.817637   0.000000   # C_R
 329 1 7   0.000000   6.533592   4.812626  20.700400   # C_R
 330 1 5   0.000000   7.649589   4.580613   0.000000   # H_
 331 1 5   0.000000   5.769568   2.701634  20.700400   # H_
 332 1 10   0.000000   3.528560   1.972660   0.000000   # O_1
 333 1 6   0.000000   3.179573   3.179664   0.000000   # C_2
 334 1 10   0.000000   1.972577   3.528677   0.000000   # O_1
 335 2 8   0.000000   4.028712   8.209295   0.070361   # N_1
 336 2 8   0.000000   3.534414   8.886229   0.855946   # N_1
 337 1 6   0.000000   0.000000  17.520819   3.179581   # C_2
 338 1 10   0.000000   0.000000  18.727815   3.528595   # O_1
 339 1 10   0.000000  20.700400  17.171832   1.972577   # O_1
 340 1 7   0.000000   0.000000  16.456806   4.243569   # C_R
 341 1 7   0.000000   0.000000  15.162811   3.816555   # C_R
 342 2 9   0.000000   0.812227  14.818086   2.793727   # N_2
 343 1 5   0.000000   0.000000  13.051803   4.580531   # H_
 344 1 7   0.000000   0.000000  14.167800   4.812543   # C_R
 345 1 7   0.000000   0.000000  14.593785   6.106548   # C_R
 346 1 7   0.000000   0.000000  15.887781   6.532563   # C_R
 347 1 7   0.000000   0.000000  16.883792   5.537574   # C_R
 348 1 5   0.000000   0.000000  17.999789   5.769587   # H_
 349 1 5   0.000000   0.000000  16.119768   7.648566   # H_
 350 1 10   0.000000   0.000000  13.878760   8.377540   # O_1
 351 1 6   0.000000   0.000000  13.529773   7.170536   # C_2
 352 1 10   0.000000   0.000000  12.322777   6.821523   # O_1
 353 2 8   0.000000  20.630039  14.378912   2.140905   # N_1
 354 2 8   0.000000  19.844454  13.884614   1.463971   # N_1
 355 1 6   0.000000   0.000000   7.170619  13.529781   # C_2
 356 1 10   0.000000   0.000000   8.377615  13.878795   # O_1
 357 1 10   0.000000  20.700400   6.821632  12.322777   # O_1
 358 1 7   0.000000   0.000000   6.106606  14.593769   # C_R
 359 1 7   0.000000   0.000000   4.812611  14.166755   # C_R
 360 2 9   0.000000   0.812227   4.467886  13.143927   # N_2
 361 1 5   0.000000   0.000000   2.701603  14.930731   # H_
 362 1 7   0.000000   0.000000   3.817600  15.162743   # C_R
 363 1 7   0.000000   0.000000   4.243585  16.456748   # C_R
 364 1 7   0.000000   0.000000   5.537581  16.882763   # C_R
 365 1 7   0.000000   0.000000   6.533592  15.887774   # C_R
 366 1 5   0.000000   0.000000   7.649589  16.119787   # H_
 367 1 5   0.000000   0.000000   5.769568  17.998766   # H_
 368 1 10   0.000000   0.000000   3.528560  18.727740   # O_1
 369 1 6   0.000000   0.000000   3.179573  17.520736   # C_2
 370 1 10   0.000000   0.000000   1.972577  17.171723   # O_1
 371 2 8   0.000000  20.630039   4.028712  12.491105   # N_1
 372 2 8   0.000000  19.844454   3.534414  11.814171   # N_1
 373 1 6   0.000000  10.350200  17.520819  13.529781   # C_2
 374 1 10   0.000000  10.350200  18.727815  13.878795   # O_1
 375 1 10   0.000000  10.350200  17.171832  12.322777   # O_1
 376 1 7   0.000000  10.350200  16.456806  14.593769   # C_R
 377 1 7   0.000000  10.350200  15.162811  14.166755   # C_R
 378 2 9   0.000000  11.162427  14.818086  13.143927   # N_2
 379 1 5   0.000000  10.350200  13.051803  14.930731   # H_
 380 1 7   0.000000  10.350200  14.167800  15.162743   # C_R
 381 1 7   0.000000  10.350200  14.593785  16.456748   # C_R
 382 1 7   0.000000  10.350200  15.887781  16.882763   # C_R
 383 1 7   0.000000  10.350200  16.883792  15.887774   # C_R
 384 1 5   0.000000  10.350200  17.999789  16.119787   # H_
 385 1 5   0.000000  10.350200  16.119768  17.998766   # H_
 386 1 10   0.000000  10.350200  13.878760  18.727740   # O_1
 387 1 6   0.000000  10.350200  13.529773  17.520736   # C_2
 388 1 10   0.000000  10.350200  12.322777  17.171723   # O_1
 389 2 8   0.000000  10.279839  14.378912  12.491105   # N_1
 390 2 8   0.000000   9.494254  13.884614  11.814171   # N_1
 391 1 6   0.000000  10.350200   7.170619   3.179581   # C_2
 392 1 10   0.000000  10.350200   8.377615   3.528595   # O_1
 393 1 10   0.000000  10.350200   6.821632   1.972577   # O_1
 394 1 7   0.000000  10.350200   6.106606   4.243569   # C_R
 395 1 7   0.000000  10.350200   4.812611   3.816555   # C_R
 396 2 9   0.000000  11.162427   4.467886   2.793727   # N_2
 397 1 5   0.000000  10.350200   2.701603   4.580531   # H_
 398 1 7   0.000000  10.350200   3.817600   4.812543   # C_R
 399 1 7   0.000000  10.350200   4.243585   6.106548   # C_R
 400 1 7   0.000000  10.350200   5.537581   6.532563   # C_R
 401 1 7   0.000000  10.350200   6.533592   5.537574   # C_R
 402 1 5   0.000000  10.350200   7.649589   5.769587   # H_
 403 1 5   0.000000  10.350200   5.769568   7.648566   # H_
 404 1 10   0.000000  10.350200   3.528560   8.377540   # O_1
 405 1 6   0.000000  10.350200   3.179573   7.170536   # C_2
 406 1 10   0.000000  10.350200   1.972577   6.821523   # O_1
 407 2 8   0.000000  10.279839   4.028712   2.140905   # N_1
 408 2 8   0.000000   9.494254   3.534414   1.463971   # N_1
 409 1 6   0.000000   0.000000  17.520819  17.520819   # C_2
 410 1 10   0.000000  20.700400  18.727815  17.171805   # O_1
 411 1 10   0.000000   0.000000  17.171832  18.727823   # O_1
 412 1 7   0.000000  20.700400  16.456806  16.456831   # C_R
 413 1 7   0.000000   0.000000  15.162811  16.883845   # C_R
 414 2 9   0.000000  19.888173  14.818086  17.906673   # N_2
 415 1 5   0.000000   0.000000  13.051803  16.119869   # H_
 416 1 7   0.000000   0.000000  14.167800  15.887857   # C_R
 417 1 7   0.000000   0.000000  14.593785  14.593852   # C_R
 418 1 7   0.000000  20.700400  15.887781  14.167837   # C_R
 419 1 7   0.000000   0.000000  16.883792  15.162826   # C_R
 420 1 5   0.000000  20.700400  17.999789  14.930813   # H_
 421 1 5   0.000000  20.700400  16.119768  13.051834   # H_
 422 1 10   0.000000   0.000000  13.878760  12.322860   # O_1
 423 1 6   0.000000   0.000000  13.529773  13.529864   # C_2
 424 1 10   0.000000   0.000000  12.322777  13.878877   # O_1
 425 2 8   0.000000   0.070361  14.378912  18.559495   # N_1
 426 2 8   0.000000   0.855946  13.884614  19.236429   # N_1
 427 1 6   0.000000   0.000000   7.170619   7.170619   # C_2
 428 1 10   0.000000   0.000000   8.377615   6.821605   # O_1
 429 1 10   0.000000   0.000000   6.821632   8.377623   # O_1
 430 1 7   0.000000  20.700400   6.106606   6.106631   # C_R
 431 1 7   0.000000   0.000000   4.812611   6.533645   # C_R
 432 2 9   0.000000  19.888173   4.467886   7.556473   # N_2
 433 1 5   0.000000   0.000000   2.701603   5.769669   # H_
 434 1 7   0.000000  20.700400   3.817600   5.537657   # C_R
 435 1 7   0.000000   0.000000   4.243585   4.243652   # C_R
 436 1 7   0.000000  20.700400   5.537581   3.817637   # C_R
 437 1 7   0.000000   0.000000   6.533592   4.812626   # C_R
 438 1 5   0.000000   0.000000   7.649589   4.580613   # H_
 439 1 5   0.000000   0.000000   5.769568   2.701634   # H_
 440 1 10   0.000000   0.000000   3.528560   1.972660   # O_1
 441 1 6   0.000000   0.000000   3.179573   3.179664   # C_2
 442 1 10   0.000000   0.000000   1.972577   3.528677   # O_1
 443 2 8   0.000000   0.070361   4.028712   8.209295   # N_1
 444 2 8   0.000000   0.855946   3.534414   8.886229   # N_1
 445 1 6   0.000000  10.350200  17.520819   7.170619   # C_2
 446 1 10   0.000000  10.350200  18.727815   6.821605   # O_1
 447 1 10   0.000000  10.350200  17.171832   8.377623   # O_1
 448 1 7   0.000000  10.350200  16.456806   6.106631   # C_R
 449 1 7   0.000000  10.350200  15.162811   6.533645   # C_R
 450 2 9   0.000000   9.537973  14.818086   7.556473   # N_2
 451 1 5   0.000000  10.350200  13.051803   5.769669   # H_
 452 1 7   0.000000  10.350200  14.167800   5.537657   # C_R
 453 1 7   0.000000  10.350200  14.593785   4.243652   # C_R
 454 1 7   0.000000  10.350200  15.887781   3.817637   # C_R
 455 1 7   0.000000  10.350200  16.883792   4.812626   # C_R
 456 1 5   0.000000  10.350200  17.999789   4.580613   # H_
 457 1 5   0.000000  10.350200  16.119768   2.701634   # H_
 458 1 10   0.000000  10.350200  13.878760   1.972660   # O_1
 459 1 6   0.000000  10.350200  13.529773   3.179664   # C_2
 460 1 10   0.000000  10.350200  12.322777   3.528677   # O_1
 461 2 8   0.000000  10.420561  14.378912   8.209295   # N_1
 462 2 8   0.000000  11.206146  13.884614   8.886229   # N_1
 463 1 6   0.000000  10.350200   7.170619  17.520819   # C_2
 464 1 10   0.000000  10.350200   8.377615  17.171805   # O_1
 465 1 10   0.000000  10.350200   6.821632  18.727823   # O_1
 466 1 7   0.000000  10.350200   6.106606  16.456831   # C_R
 467 1 7   0.000000  10.350200   4.812611  16.883845   # C_R
 468 2 9   0.000000   9.537973   4.467886  17.906673   # N_2
 469 1 5   0.000000  10.350200   2.701603  16.119869   # H_
 470 1 7   0.000000  10.350200   3.817600  15.887857   # C_R
 471 1 7   0.000000  10.350200   4.243585  14.593852   # C_R