 (written by mofun)

1544 atoms
960 bonds
1968 angles
3264 dihedrals
0 impropers

10 atom types
5 bond types
9 angle types
13 dihedral types
   0.000000  26.896000 xlo xhi
   0.000000  26.896000 ylo yhi
   0.000000  26.896000 zlo zhi

Masses

 1 91.2240   # Zr3+4
 2 15.9994   # O_3
 3 12.0107   # C_3
 4 1.0079   # H_
 5 1.0079   # H_
 6 12.0107   # C_2
 7 12.0107   # C_3
 8 12.0107   # C_R
 9 14.0067   # N_3
 10 15.9994   # O_1

Pair Coeffs

 1   0.069000   2.783168 # Zr3+4
 2   0.060000   3.118146 # O_3
 3   0.105000   3.430851 # C_3
 4   0.044000   2.571134 # H_
 5 0.044000 2.571134   # H_
 6 0.105000 3.430851   # C_2
 7 0.105000 3.430851   # C_3
 8 0.105000 3.430851   # C_R
 9 0.069000 3.260689   # N_3
 10 0.060000 3.118146   # O_1

Bond Coeffs

 1 560.312976 1.423192   # C_R N_3
 2 528.634538 1.451071   # C_3 N_3
 3 349.795899 1.514000   # C_3 C_3
 4 331.069389 1.109401   # C_3 H_
 5 527.945261 1.044419   # H_ N_3

Angle Coeffs

 1 cosine/periodic  282.369526  -1  3   # C_R C_R N_3
 2 fourier  268.482172  0.317506  0.313225  0.272502   # C_3 N_3 C_R
 3 fourier  150.574599  0.317506  0.313225  0.272502   # C_R N_3 H_
 4 fourier  144.695053  0.317506  0.313225  0.272502   # C_3 N_3 H_
 5 fourier  303.297032  0.343737  0.374972  0.281246   # C_3 C_3 N_3
 6 fourier  169.780468  0.343737  0.374972  0.281246   # H_ C_3 N_3
 7 fourier  214.211821  0.343737  0.374972  0.281246   # C_3 C_3 C_3
 8 fourier  117.318683  0.343737  0.374972  0.281246   # C_3 C_3 H_
 9 fourier  75.498766  0.343737  0.374972  0.281246   # H_ C_3 H_

Dihedral Coeffs

 1 harmonic 3.368555 -1 2   # C_R C_R C_R N_3 M=4
 2 harmonic 3.368555 -1 2   # H_ C_R C_R N_3 M=4
 3 harmonic 0.125000 -1 6   # C_3 N_3 C_R C_R M=4
 4 harmonic 0.125000 -1 6   # C_R C_R N_3 H_ M=4
 5 harmonic 0.081375 1 3   # C_3 C_3 N_3 C_R M=6
 6 harmonic 0.081375 1 3   # C_R N_3 C_3 H_ M=6
 7 harmonic 0.081375 1 3   # C_3 C_3 N_3 H_ M=6
 8 harmonic 0.081375 1 3   # H_ C_3 N_3 H_ M=6
 9 harmonic 0.117722 1 3   # C_3 C_3 C_3 N_3 M=9
 10 harmonic 0.117722 1 3   # H_ C_3 C_3 N_3 M=9
 11 harmonic 0.117722 1 3   # C_3 C_3 C_3 C_3 M=9
 12 harmonic 0.117722 1 3   # C_3 C_3 C_3 H_ M=9
 13 harmonic 0.117722 1 3   # H_ C_3 C_3 H_ M=9

Atoms

 1 1 1   0.000000   2.475508   0.000000   0.000000   # Zr3+4
 2 1 1   0.000000  24.420492   0.000000   0.000000   # Zr3+4
 3 1 1   0.000000   0.000000   2.475508   0.000000   # Zr3+4
 4 1 1   0.000000   0.000000  24.420492   0.000000   # Zr3+4
 5 1 1   0.000000   0.000000   0.000000   2.475508   # Zr3+4
 6 1 1   0.000000   0.000000   0.000000  24.420492   # Zr3+4
 7 1 1   0.000000   2.475508  13.448000  13.448000   # Zr3+4
 8 1 1   0.000000  24.420492  13.448000  13.448000   # Zr3+4
 9 1 1   0.000000   0.000000  15.923508  13.448000   # Zr3+4
 10 1 1   0.000000   0.000000  10.972492  13.448000   # Zr3+4
 11 1 1   0.000000   0.000000  13.448000  15.923508   # Zr3+4
 12 1 1   0.000000   0.000000  13.448000  10.972492   # Zr3+4
 13 1 1   0.000000  15.923508   0.000000  13.448000   # Zr3+4
 14 1 1   0.000000  10.972492   0.000000  13.448000   # Zr3+4
 15 1 1   0.000000  13.448000   2.475508  13.448000   # Zr3+4
 16 1 1   0.000000  13.448000  24.420492  13.448000   # Zr3+4
 17 1 1   0.000000  13.448000   0.000000  15.923508   # Zr3+4
 18 1 1   0.000000  13.448000   0.000000  10.972492   # Zr3+4
 19 1 1   0.000000  15.923508  13.448000   0.000000   # Zr3+4
 20 1 1   0.000000  10.972492  13.448000   0.000000   # Zr3+4
 21 1 1   0.000000  13.448000  15.923508   0.000000   # Zr3+4
 22 1 1   0.000000  13.448000  10.972492   0.000000   # Zr3+4
 23 1 1   0.000000  13.448000  13.448000   2.475508   # Zr3+4
 24 1 1   0.000000  13.448000  13.448000  24.420492   # Zr3+4
 25 1 2   0.000000   1.221078   1.221078   1.221078   # O_3
 26 1 2   0.000000  25.674922  25.674922   1.221078   # O_3
 27 1 2   0.000000  25.674922   1.221078  25.674922   # O_3
 28 1 2   0.000000   1.221078  25.674922  25.674922   # O_3
 29 1 2   0.000000   1.221078   1.221078  25.674922   # O_3
 30 1 2   0.000000  25.674922  25.674922  25.674922   # O_3
 31 1 2   0.000000   1.221078  25.674922   1.221078   # O_3
 32 1 2   0.000000  25.674922   1.221078   1.221078   # O_3
 33 1 2   0.000000   1.221078  14.669078  14.669078   # O_3
 34 1 2   0.000000  25.674922  12.226922  14.669078   # O_3
 35 1 2   0.000000  25.674922  14.669078  12.226922   # O_3
 36 1 2   0.000000   1.221078  12.226922  12.226922   # O_3
 37 1 2   0.000000   1.221078  14.669078  12.226922   # O_3
 38 1 2   0.000000  25.674922  12.226922  12.226922   # O_3
 39 1 2   0.000000   1.221078  12.226922  14.669078   # O_3
 40 1 2   0.000000  25.674922  14.669078  14.669078   # O_3
 41 1 2   0.000000  14.669078   1.221078  14.669078   # O_3
 42 1 2   0.000000  12.226922  25.674922  14.669078   # O_3
 43 1 2   0.000000  12.226922   1.221078  12.226922   # O_3
 44 1 2   0.000000  14.669078  25.674922  12.226922   # O_3
 45 1 2   0.000000  14.669078   1.221078  12.226922   # O_3
 46 1 2   0.000000  12.226922  25.674922  12.226922   # O_3
 47 1 2   0.000000  14.669078  25.674922  14.669078   # O_3
 48 1 2   0.000000  12.226922   1.221078  14.669078   # O_3
 49 1 2   0.000000  14.669078  14.669078   1.221078   # O_3
 50 1 2   0.000000  12.226922  12.226922   1.221078   # O_3
 51 1 2   0.000000  12.226922  14.669078  25.674922   # O_3
 52 1 2   0.000000  14.669078  12.226922  25.674922   # O_3
 53 1 2   0.000000  14.669078  14.669078  25.674922   # O_3
 54 1 2   0.000000  12.226922  12.226922  25.674922   # O_3
 55 1 2   0.000000  14.669078  12.226922   1.221078   # O_3
 56 1 2   0.000000  12.226922  14.669078   1.221078   # O_3
 57 1 10   0.000000   3.566410   0.000000   1.933822   # O_1
 58 1 6   0.000000   3.152211   0.000000   3.152223   # C_2
 59 1 10   0.000000   1.933811  26.896000   3.566424   # O_1
 60 1 8   0.000000   4.209211   0.000000   4.209222   # C_R
 61 1 8   0.000000   5.535211   0.000000   3.891921   # C_R
 62 1 8   0.000000   3.891912   0.000000   5.535222   # C_R
 63 1 8   0.000000   6.508812   0.000000   4.827820   # C_R
 64 1 5   0.000000   5.780010  26.896000   2.996221   # H_
 65 1 8   0.000000   4.827813  26.896000   6.508821   # C_R
 66 1 5   0.000000   2.996212  26.896000   5.780023   # H_
 67 1 8   0.000000   6.204913   0.000000   6.204920   # C_R
 68 1 8   0.000000   7.243114  26.896000   7.243120   # C_R
 69 1 5   0.000000   7.399112   0.000000   4.558920   # H_
 70 1 8   0.000000   8.620213   0.000000   6.939219   # C_R
 71 2 9   0.000000   4.264082   0.129419   7.834663   # N_3
 72 1 8   0.000000   6.939215   0.000000   8.620220   # C_R
 73 1 8   0.000000   9.556114   0.000000   7.912818   # C_R
 74 2 9   0.000000   9.189884   0.011772   5.620425   # N_3
 75 1 8   0.000000   7.912815   0.000000   9.556119   # C_R
 76 1 5   0.000000   6.048915   0.000000   8.889121   # H_
 77 1 8   0.000000   9.238815  26.896000   9.238818   # C_R
 78 1 6   0.000000  10.295816  26.896000  10.295817   # C_2
 79 1 5   0.000000  10.451814   0.000000   7.668017   # H_
 80 1 5   0.000000   7.668016   0.000000  10.451819   # H_
 81 1 10   0.000000  11.514216   0.000000   9.881616   # O_1
 82 1 10   0.000000   9.881617   0.000000  11.514218   # O_1
 83 2 7   0.000000  12.081172  26.445330   3.436679   # C_3
 84 2 7   0.000000   9.736992  25.619332   5.122504   # C_3
 85 2 7   0.000000   2.059870   1.225020   8.257643   # C_3
 86 2 7   0.000000   3.572786   1.433676   8.044359   # C_3
 87 2 7   0.000000  11.196203  25.353547   5.540864   # C_3
 88 2 7   0.000000  12.185349  26.365329   4.956990   # C_3
 89 2 7   0.000000   9.691475  25.629046   3.577676   # C_3
 90 2 7   0.000000  10.645918  26.657599   2.966258   # C_3
 91 2 5   0.000000  10.607158  26.588489   1.873010   # H_
 92 2 5   0.000000  10.319303   0.775665   3.226460   # H_
 93 2 5   0.000000   8.679048  25.818864   3.210154   # H_
 94 2 5   0.000000   9.964129  24.631484   3.208652   # H_
 95 2 7   0.000000   2.342944   1.319445  10.766794   # C_3
 96 2 7   0.000000   3.846908   1.494988  10.587370   # C_3
 97 2 5   0.000000   2.141844   0.782187  11.700413   # H_
 98 2 7   0.000000   1.723269   0.566012   9.595705   # C_3
 99 2 7   0.000000   4.177591   2.164727   9.254049   # C_3
 100 2 5   0.000000   0.634697   0.527431   9.719120   # H_
 101 2 5   0.000000   2.075633  26.423753   9.600411   # H_
 102 2 5   0.000000  12.717074   0.360514   3.063770   # H_
 103 2 5   0.000000   3.588551  26.264637   7.912481   # H_
 104 2 5   0.000000   9.901030   0.739790   5.605682   # H_
 105 2 5   0.000000  12.467705  25.515762   3.000869   # H_
 106 2 5   0.000000   4.339126   0.517515  10.649369   # H_
 107 2 5   0.000000   4.244480   2.101288  11.409326   # H_
 108 2 5   0.000000   5.263000   2.260354   9.146421   # H_
 109 2 5   0.000000  11.479543  24.354371   5.182044   # H_
 110 2 5   0.000000  11.311223  25.306432   6.625881   # H_
 111 2 5   0.000000  13.206860  26.080130   5.234245   # H_
 112 2 5   0.000000   1.564129   2.203809   8.217268   # H_
 113 2 5   0.000000   1.626417   0.627487   7.448493   # H_
 114 2 5   0.000000   3.709014   2.090964   7.174831   # H_
 115 2 5   0.000000   9.102495  24.796017   5.474109   # H_
 116 2 5   0.000000  12.013524   0.460925   5.391143   # H_
 117 2 5   0.000000   1.868825   2.304581  10.857891   # H_
 118 2 5   0.000000   3.783013   3.189410   9.274827   # H_
 119 1 10   0.000000  23.329590   0.000000   1.933822   # O_1
 120 1 6   0.000000  23.743789   0.000000   3.152223   # C_2
 121 1 10   0.000000  24.962189   0.000000   3.566424   # O_1
 122 1 8   0.000000  22.686789   0.000000   4.209222   # C_R
 123 1 8   0.000000  21.360789  26.896000   3.891921   # C_R
 124 1 8   0.000000  23.004088   0.000000   5.535222   # C_R
 125 1 8   0.000000  20.387188  26.896000   4.827820   # C_R
 126 1 5   0.000000  21.115990  26.896000   2.996221   # H_
 127 1 8   0.000000  22.068187   0.000000   6.508821   # C_R
 128 1 5   0.000000  23.899788   0.000000   5.780023   # H_
 129 1 8   0.000000  20.691087   0.000000   6.204920   # C_R
 130 1 8   0.000000  19.652886  26.896000   7.243120   # C_R
 131 1 5   0.000000  19.496888  26.896000   4.558920   # H_
 132 1 8   0.000000  18.275787  26.896000   6.939219   # C_R
 133 2 9   0.000000  22.631918  26.766581   7.834663   # N_3
 134 1 8   0.000000  19.956785   0.000000   8.620220   # C_R
 135 1 8   0.000000  17.339886  26.896000   7.912818   # C_R
 136 2 9   0.000000  17.706116  26.884228   5.620425   # N_3
 137 1 8   0.000000  18.983185   0.000000   9.556119   # C_R
 138 1 5   0.000000  20.847085   0.000000   8.889121   # H_
 139 1 8   0.000000  17.657185  26.896000   9.238818   # C_R
 140 1 6   0.000000  16.600184  26.896000  10.295817   # C_2
 141 1 5   0.000000  16.444186  26.896000   7.668017   # H_
 142 1 5   0.000000  19.227984   0.000000  10.451819   # H_
 143 1 10   0.000000  15.381784  26.896000   9.881616   # O_1
 144 1 10   0.000000  17.014383  26.896000  11.514218   # O_1
 145 2 7   0.000000  14.814828   0.450670   3.436679   # C_3
 146 2 7   0.000000  17.159008   1.276668   5.122504   # C_3
 147 2 7   0.000000  24.836130  25.670980   8.257643   # C_3
 148 2 7   0.000000  23.323214  25.462324   8.044359   # C_3
 149 2 7   0.000000  15.699797   1.542453   5.540864   # C_3
 150 2 7   0.000000  14.710651   0.530671   4.956990   # C_3
 151 2 7   0.000000  17.204525   1.266954   3.577676   # C_3
 152 2 7   0.000000  16.250082   0.238401   2.966258   # C_3
 153 2 5   0.000000  16.288842   0.307511   1.873010   # H_
 154 2 5   0.000000  16.576697  26.120335   3.226460   # H_
 155 2 5   0.000000  18.216952   1.077136   3.210154   # H_
 156 2 5   0.000000  16.931871   2.264516   3.208652   # H_
 157 2 7   0.000000  24.553056  25.576555  10.766794   # C_3
 158 2 7   0.000000  23.049092  25.401012  10.587370   # C_3
 159 2 5   0.000000  24.754156  26.113813  11.700413   # H_
 160 2 7   0.000000  25.172731  26.329988   9.595705   # C_3
 161 2 7   0.000000  22.718409  24.731273   9.254049   # C_3
 162 2 5   0.000000  26.261303  26.368569   9.719120   # H_
 163 2 5   0.000000  24.820367   0.472247   9.600411   # H_
 164 2 5   0.000000  14.178926  26.535486   3.063770   # H_
 165 2 5   0.000000  23.307449   0.631363   7.912481   # H_
 166 2 5   0.000000  16.994970  26.156210   5.605682   # H_
 167 2 5   0.000000  14.428295   1.380238   3.000869   # H_
 168 2 5   0.000000  22.556874  26.378485  10.649369   # H_
 169 2 5   0.000000  22.651520  24.794712  11.409326   # H_
 170 2 5   0.000000  21.633000  24.635646   9.146421   # H_
 171 2 5   0.000000  15.416457   2.541629   5.182044   # H_
 172 2 5   0.000000  15.584777   1.589568   6.625881   # H_
 173 2 5   0.000000  13.689140   0.815870   5.234245   # H_
 174 2 5   0.000000  25.331871  24.692191   8.217268   # H_
 175 2 5   0.000000  25.269583  26.268513   7.448493   # H_
 176 2 5   0.000000  23.186986  24.805036   7.174831   # H_
 177 2 5   0.000000  17.793505   2.099983   5.474109   # H_
 178 2 5   0.000000  14.882476  26.435075   5.391143   # H_
 179 2 5   0.000000  25.027175  24.591419  10.857891   # H_
 180 2 5   0.000000  23.112987  23.706590   9.274827   # H_
 181 1 10   0.000000  23.329590   0.000000  24.962178   # O_1
 182 1 6   0.000000  23.743789   0.000000  23.743777   # C_2
 183 1 10   0.000000  24.962189   0.000000  23.329576   # O_1
 184 1 8   0.000000  22.686789   0.000000  22.686778   # C_R
 185 1 8   0.000000  21.360789  26.896000  23.004079   # C_R
 186 1 8   0.000000  23.004088   0.000000  21.360778   # C_R
 187 1 8   0.000000  20.387188  26.896000  22.068180   # C_R
 188 1 5   0.000000  21.115990  26.896000  23.899779   # H_
 189 1 8   0.000000  22.068187   0.000000  20.387179   # C_R
 190 1 5   0.000000  23.899788   0.000000  21.115977   # H_
 191 1 8   0.000000  20.691087   0.000000  20.691080   # C_R
 192 1 8   0.000000  19.652886  26.896000  19.652880   # C_R
 193 1 5   0.000000  19.496888  26.896000  22.337080   # H_
 194 1 8   0.000000  18.275787  26.896000  19.956781   # C_R
 195 2 9   0.000000  22.631918   0.129419  19.061337   # N_3
 196 1 8   0.000000  19.956785   0.000000  18.275780   # C_R
 197 1 8   0.000000  17.339886  26.896000  18.983182   # C_R
 198 2 9   0.000000  17.706116   0.011772  21.275575   # N_3
 199 1 8   0.000000  18.983185   0.000000  17.339881   # C_R
 200 1 5   0.000000  20.847085   0.000000  18.006879   # H_
 201 1 8   0.000000  17.657185  26.896000  17.657182   # C_R
 202 1 6   0.000000  16.600184  26.896000  16.600183   # C_2
 203 1 5   0.000000  16.444186  26.896000  19.227983   # H_
 204 1 5   0.000000  19.227984   0.000000  16.444181   # H_
 205 1 10   0.000000  15.381784  26.896000  17.014384   # O_1
 206 1 10   0.000000  17.014383  26.896000  15.381782   # O_1
 207 2 7   0.000000  14.814828  26.445330  23.459321   # C_3
 208 2 7   0.000000  17.159008  25.619332  21.773496   # C_3
 209 2 7   0.000000  24.836130   1.225020  18.638357   # C_3
 210 2 7   0.000000  23.323214   1.433676  18.851641   # C_3
 211 2 7   0.000000  15.699797  25.353547  21.355136   # C_3
 212 2 7   0.000000  14.710651  26.365329  21.939010   # C_3
 213 2 7   0.000000  17.204525  25.629046  23.318324   # C_3
 214 2 7   0.000000  16.250082  26.657599  23.929742   # C_3
 215 2 5   0.000000  16.288842  26.588489  25.022990   # H_
 216 2 5   0.000000  16.576697   0.775665  23.669540   # H_
 217 2 5   0.000000  18.216952  25.818864  23.685846   # H_
 218 2 5   0.000000  16.931871  24.631484  23.687348   # H_
 219 2 7   0.000000  24.553056   1.319445  16.129206   # C_3
 220 2 7   0.000000  23.049092   1.494988  16.308630   # C_3
 221 2 5   0.000000  24.754156   0.782187  15.195587   # H_
 222 2 7   0.000000  25.172731   0.566012  17.300295   # C_3
 223 2 7   0.000000  22.718409   2.164727  17.641951   # C_3
 224 2 5   0.000000  26.261303   0.527431  17.176880   # H_
 225 2 5   0.000000  24.820367  26.423753  17.295589   # H_
 226 2 5   0.000000  14.178926   0.360514  23.832230   # H_
 227 2 5   0.000000  23.307449  26.264637  18.983519   # H_
 228 2 5   0.000000  16.994970   0.739790  21.290318   # H_
 229 2 5   0.000000  14.428295  25.515762  23.895131   # H_
 230 2 5   0.000000  22.556874   0.517515  16.246631   # H_
 231 2 5   0.000000  22.651520   2.101288  15.486674   # H_
 232 2 5   0.000000  21.633000   2.260354  17.749579   # H_
 233 2 5   0.000000  15.416457  24.354371  21.713956   # H_
 234 2 5   0.000000  15.584777  25.306432  20.270119   # H_
 235 2 5   0.000000  13.689140  26.080130  21.661755   # H_
 236 2 5   0.000000  25.331871   2.203809  18.678732   # H_
 237 2 5   0.000000  25.269583   0.627487  19.447507   # H_
 238 2 5   0.000000  23.186986   2.090964  19.721169   # H_
 239 2 5   0.000000  17.793505  24.796017  21.421891   # H_
 240 2 5   0.000000  14.882476   0.460925  21.504857   # H_
 241 2 5   0.000000  25.027175   2.304581  16.038109   # H_
 242 2 5   0.000000  23.112987   3.189410  17.621173   # H_
 243 1 10   0.000000   3.566410   0.000000  24.962178   # O_1
 244 1 6   0.000000   3.152211   0.000000  23.743777   # C_2
 245 1 10   0.000000   1.933811   0.000000  23.329576   # O_1
 246 1 8   0.000000   4.209211   0.000000  22.686778   # C_R
 247 1 8   0.000000   5.535211   0.000000  23.004079   # C_R
 248 1 8   0.000000   3.891912   0.000000  21.360778   # C_R
 249 1 8   0.000000   6.508812   0.000000  22.068180   # C_R
 250 1 5   0.000000   5.780010   0.000000  23.899779   # H_
 251 1 8   0.000000   4.827813   0.000000  20.387179   # C_R
 252 1 5   0.000000   2.996212   0.000000  21.115977   # H_
 253 1 8   0.000000   6.204913   0.000000  20.691080   # C_R
 254 1 8   0.000000   7.243114   0.000000  19.652880   # C_R
 255 1 5   0.000000   7.399112   0.000000  22.337080   # H_
 256 1 8   0.000000   8.620213   0.000000  19.956781   # C_R
 257 2 9   0.000000   4.264082  26.766581  19.061337   # N_3
 258 1 8   0.000000   6.939215   0.000000  18.275780   # C_R
 259 1 8   0.000000   9.556114   0.000000  18.983182   # C_R
 260 2 9   0.000000   9.189884  26.884228  21.275575   # N_3
 261 1 8   0.000000   7.912815   0.000000  17.339881   # C_R
 262 1 5   0.000000   6.048915   0.000000  18.006879   # H_
 263 1 8   0.000000   9.238815   0.000000  17.657182   # C_R
 264 1 6   0.000000  10.295816   0.000000  16.600183   # C_2
 265 1 5   0.000000  10.451814   0.000000  19.227983   # H_
 266 1 5   0.000000   7.668016   0.000000  16.444181   # H_
 267 1 10   0.000000  11.514216   0.000000  17.014384   # O_1
 268 1 10   0.000000   9.881617   0.000000  15.381782   # O_1
 269 2 7   0.000000  12.081172   0.450670  23.459321   # C_3
 270 2 7   0.000000   9.736992   1.276668  21.773496   # C_3
 271 2 7   0.000000   2.059870  25.670980  18.638357   # C_3
 272 2 7   0.000000   3.572786  25.462324  18.851641   # C_3
 273 2 7   0.000000  11.196203   1.542453  21.355136   # C_3
 274 2 7   0.000000  12.185349   0.530671  21.939010   # C_3
 275 2 7   0.000000   9.691475   1.266954  23.318324   # C_3
 276 2 7   0.000000  10.645918   0.238401  23.929742   # C_3
 277 2 5   0.000000  10.607158   0.307511  25.022990   # H_
 278 2 5   0.000000  10.319303  26.120335  23.669540   # H_
 279 2 5   0.000000   8.679048   1.077136  23.685846   # H_
 280 2 5   0.000000   9.964129   2.264516  23.687348   # H_
 281 2 7   0.000000   2.342944  25.576555  16.129206   # C_3
 282 2 7   0.000000   3.846908  25.401012  16.308630   # C_3
 283 2 5   0.000000   2.141844  26.113813  15.195587   # H_
 284 2 7   0.000000   1.723269  26.329988  17.300295   # C_3
 285 2 7   0.000000   4.177591  24.731273  17.641951   # C_3
 286 2 5   0.000000   0.634697  26.368569  17.176880   # H_
 287 2 5   0.000000   2.075633   0.472247  17.295589   # H_
 288 2 5   0.000000  12.717074  26.535486  23.832230   # H_
 289 2 5   0.000000   3.588551   0.631363  18.983519   # H_
 290 2 5   0.000000   9.901030  26.156210  21.290318   # H_
 291 2 5   0.000000  12.467705   1.380238  23.895131   # H_
 292 2 5   0.000000   4.339126  26.378485  16.246631   # H_
 293 2 5   0.000000   4.244480  24.794712  15.486674   # H_
 294 2 5   0.000000   5.263000  24.635646  17.749579   # H_
 295 2 5   0.000000  11.479543   2.541629  21.713956   # H_
 296 2 5   0.000000  11.311223   1.589568  20.270119   # H_
 297 2 5   0.000000  13.206860   0.815870  21.661755   # H_
 298 2 5   0.000000   1.564129  24.692191  18.678732   # H_
 299 2 5   0.000000   1.626417  26.268513  19.447507   # H_
 300 2 5   0.000000   3.709014  24.805036  19.721169   # H_
 301 2 5   0.000000   9.102495   2.099983  21.421891   # H_
 302 2 5   0.000000  12.013524  26.435075  21.504857   # H_
 303 2 5   0.000000   1.868825  24.591419  16.038109   # H_
 304 2 5   0.000000   3.783013  23.706590  17.621173   # H_
 305 1 10   0.000000   1.933822   3.566410   0.000000   # O_1
 306 1 6   0.000000   3.152223   3.152211   0.000000   # C_2
 307 1 10   0.000000   3.566424   1.933811   0.000000   # O_1
 308 1 8   0.000000   4.209222   4.209211   0.000000   # C_R
 309 1 8   0.000000   3.891921   5.535211  26.896000   # C_R
 310 1 8   0.000000   5.535222   3.891912   0.000000   # C_R
 311 1 8   0.000000   4.827820   6.508812  26.896000   # C_R
 312 1 5   0.000000   2.996221   5.780010  26.896000   # H_
 313 1 8   0.000000   6.508821   4.827813   0.000000   # C_R
 314 1 5   0.000000   5.780023   2.996212   0.000000   # H_
 315 1 8   0.000000   6.204920   6.204913   0.000000   # C_R
 316 1 8   0.000000   7.243120   7.243114  26.896000   # C_R
 317 1 5   0.000000   4.558920   7.399112  26.896000   # H_
 318 1 8   0.000000   6.939219   8.620213  26.896000   # C_R
 319 2 9   0.000000   7.834663   4.264082   0.129419   # N_3
 320 1 8   0.000000   8.620220   6.939215   0.000000   # C_R
 321 1 8   0.000000   7.912818   9.556114  26.896000   # C_R
 322 2 9   0.000000   5.620425   9.189884   0.011772   # N_3
 323 1 8   0.000000   9.556119   7.912815   0.000000   # C_R
 324 1 5   0.000000   8.889121   6.048915   0.000000   # H_
 325 1 8   0.000000   9.238818   9.238815  26.896000   # C_R
 326 1 6   0.000000  10.295817  10.295816  26.896000   # C_2
 327 1 5   0.000000   7.668017  10.451814  26.896000   # H_
 328 1 5   0.000000  10.451819   7.668016   0.000000   # H_
 329 1 10   0.000000   9.881616  11.514216  26.896000   # O_1
 330 1 10   0.000000  11.514218   9.881617  26.896000   # O_1
 331 2 7   0.000000   3.436679  12.081172  26.445330   # C_3
 332 2 7   0.000000   5.122504   9.736992  25.619332   # C_3
 333 2 7   0.000000   8.257643   2.059870   1.225020   # C_3
 334 2 7   0.000000   8.044359   3.572786   1.433676   # C_3
 335 2 7   0.000000   5.540864  11.196203  25.353547   # C_3
 336 2 7   0.000000   4.956990  12.185349  26.365329   # C_3
 337 2 7   0.000000   3.577676   9.691475  25.629046   # C_3
 338 2 7   0.000000   2.966258  10.645918  26.657599   # C_3
 339 2 5   0.000000   1.873010  10.607158  26.588489   # H_
 340 2 5   0.000000   3.226460  10.319303   0.775665   # H_
 341 2 5   0.000000   3.210154   8.679048  25.818864   # H_
 342 2 5   0.000000   3.208652   9.964129  24.631484   # H_
 343 2 7   0.000000  10.766794   2.342944   1.319445   # C_3
 344 2 7   0.000000  10.587370   3.846908   1.494988   # C_3
 345 2 5   0.000000  11.700413   2.141844   0.782187   # H_
 346 2 7   0.000000   9.595705   1.723269   0.566012   # C_3
 347 2 7   0.000000   9.254049   4.177591   2.164727   # C_3
 348 2 5   0.000000   9.719120   0.634697   0.527431   # H_
 349 2 5   0.000000   9.600411   2.075633  26.423753   # H_
 350 2 5   0.000000   3.063770  12.717074   0.360514   # H_
 351 2 5   0.000000   7.912481   3.588551  26.264637   # H_
 352 2 5   0.000000   5.605682   9.901030   0.739790   # H_
 353 2 5   0.000000   3.000869  12.467705  25.515762   # H_
 354 2 5   0.000000  10.649369   4.339126   0.517515   # H_
 355 2 5   0.000000  11.409326   4.244480   2.101288   # H_
 356 2 5   0.000000   9.146421   5.263000   2.260354   # H_
 357 2 5   0.000000   5.182044  11.479543  24.354371   # H_
 358 2 5   0.000000   6.625881  11.311223  25.306432   # H_
 359 2 5   0.000000   5.234245  13.206860  26.080130   # H_
 360 2 5   0.000000   8.217268   1.564129   2.203809   # H_
 361 2 5   0.000000   7.448493   1.626417   0.627487   # H_
 362 2 5   0.000000   7.174831   3.709014   2.090964   # H_
 363 2 5   0.000000   5.474109   9.102495  24.796017   # H_
 364 2 5   0.000000   5.391143  12.013524   0.460925   # H_
 365 2 5   0.000000  10.857891   1.868825   2.304581   # H_
 366 2 5   0.000000   9.274827   3.783013   3.189410   # H_
 367 1 10   0.000000   1.933822  23.329590   0.000000   # O_1
 368 1 6   0.000000   3.152223  23.743789   0.000000   # C_2
 369 1 10   0.000000   3.566424  24.962189   0.000000   # O_1
 370 1 8   0.000000   4.209222  22.686789   0.000000   # C_R
 371 1 8   0.000000   3.891921  21.360789   0.000000   # C_R
 372 1 8   0.000000   5.535222  23.004088   0.000000   # C_R
 373 1 8   0.000000   4.827820  20.387188   0.000000   # C_R
 374 1 5   0.000000   2.996221  21.115990   0.000000   # H_
 375 1 8   0.000000   6.508821  22.068187   0.000000   # C_R
 376 1 5   0.000000   5.780023  23.899788   0.000000   # H_
 377 1 8   0.000000   6.204920  20.691087   0.000000   # C_R
 378 1 8   0.000000   7.243120  19.652886   0.000000   # C_R
 379 1 5   0.000000   4.558920  19.496888   0.000000   # H_
 380 1 8   0.000000   6.939219  18.275787   0.000000   # C_R
 381 2 9   0.000000   7.834663  22.631918  26.766581   # N_3
 382 1 8   0.000000   8.620220  19.956785   0.000000   # C_R
 383 1 8   0.000000   7.912818  17.339886   0.000000   # C_R
 384 2 9   0.000000   5.620425  17.706116  26.884228   # N_3
 385 1 8   0.000000   9.556119  18.983185   0.000000   # C_R
 386 1 5   0.000000   8.889121  20.847085   0.000000   # H_
 387 1 8   0.000000   9.238818  17.657185   0.000000   # C_R
 388 1 6   0.000000  10.295817  16.600184   0.000000   # C_2
 389 1 5   0.000000   7.668017  16.444186   0.000000   # H_
 390 1 5   0.000000  10.451819  19.227984   0.000000   # H_
 391 1 10   0.000000   9.881616  15.381784   0.000000   # O_1
 392 1 10   0.000000  11.514218  17.014383   0.000000   # O_1
 393 2 7   0.000000   3.436679  14.814828   0.450670   # C_3
 394 2 7   0.000000   5.122504  17.159008   1.276668   # C_3
 395 2 7   0.000000   8.257643  24.836130  25.670980   # C_3
 396 2 7   0.000000   8.044359  23.323214  25.462324   # C_3
 397 2 7   0.000000   5.540864  15.699797   1.542453   # C_3
 398 2 7   0.000000   4.956990  14.710651   0.530671   # C_3
 399 2 7   0.000000   3.577676  17.204525   1.266954   # C_3
 400 2 7   0.000000   2.966258  16.250082   0.238401   # C_3
 401 2 5   0.000000   1.873010  16.288842   0.307511   # H_
 402 2 5   0.000000   3.226460  16.576697  26.120335   # H_
 403 2 5   0.000000   3.210154  18.216952   1.077136   # H_
 404 2 5   0.000000   3.208652  16.931871   2.264516   # H_
 405 2 7   0.000000  10.766794  24.553056  25.576555   # C_3
 406 2 7   0.000000  10.587370  23.049092  25.401012   # C_3
 407 2 5   0.000000  11.700413  24.754156  26.113813   # H_
 408 2 7   0.000000   9.595705  25.172731  26.329988   # C_3
 409 2 7   0.000000   9.254049  22.718409  24.731273   # C_3
 410 2 5   0.000000   9.719120  26.261303  26.368569   # H_
 411 2 5   0.000000   9.600411  24.820367   0.472247   # H_
 412 2 5   0.000000   3.063770  14.178926  26.535486   # H_
 413 2 5   0.000000   7.912481  23.307449   0.631363   # H_
 414 2 5   0.000000   5.605682  16.994970  26.156210   # H_
 415 2 5   0.000000   3.000869  14.428295   1.380238   # H_
 416 2 5   0.000000  10.649369  22.556874  26.378485   # H_
 417 2 5   0.000000  11.409326  22.651520  24.794712   # H_
 418 2 5   0.000000   9.146421  21.633000  24.635646   # H_
 419 2 5   0.000000   5.182044  15.416457   2.541629   # H_
 420 2 5   0.000000   6.625881  15.584777   1.589568   # H_
 421 2 5   0.000000   5.234245  13.689140   0.815870   # H_
 422 2 5   0.000000   8.217268  25.331871  24.692191   # H_
 423 2 5   0.000000   7.448493  25.269583  26.268513   # H_
 424 2 5   0.000000   7.174831  23.186986  24.805036   # H_
 425 2 5   0.000000   5.474109  17.793505   2.099983   # H_
 426 2 5   0.000000   5.391143  14.882476  26.435075   # H_
 427 2 5   0.000000  10.857891  25.027175  24.591419   # H_
 428 2 5   0.000000   9.274827  23.112987  23.706590   # H_
 429 1 10   0.000000  24.962178  23.329590   0.000000   # O_1
 430 1 6   0.000000  23.743777  23.743789   0.000000   # C_2
 431 1 10   0.000000  23.329576  24.962189   0.000000   # O_1
 432 1 8   0.000000  22.686778  22.686789   0.000000   # C_R
 433 1 8   0.000000  23.004079  21.360789  26.896000   # C_R
 434 1 8   0.000000  21.360778  23.004088   0.000000   # C_R
 435 1 8   0.000000  22.068180  20.387188  26.896000   # C_R
 436 1 5   0.000000  23.899779  21.115990  26.896000   # H_
 437 1 8   0.000000  20.387179  22.068187   0.000000   # C_R
 438 1 5   0.000000  21.115977  23.899788   0.000000   # H_
 439 1 8   0.000000  20.691080  20.691087   0.000000   # C_R
 440 1 8   0.000000  19.652880  19.652886  26.896000   # C_R
 441 1 5   0.000000  22.337080  19.496888  26.896000   # H_
 442 1 8   0.000000  19.956781  18.275787  26.896000   # C_R
 443 2 9   0.000000  19.061337  22.631918   0.129419   # N_3
 444 1 8   0.000000  18.275780  19.956785   0.000000   # C_R
 445 1 8   0.000000  18.983182  17.339886  26.896000   # C_R
 446 2 9   0.000000  21.275575  17.706116   0.011772   # N_3
 447 1 8   0.000000  17.339881  18.983185   0.000000   # C_R
 448 1 5   0.000000  18.006879  20.847085   0.000000   # H_
 449 1 8   0.000000  17.657182  17.657185  26.896000   # C_R
 450 1 6   0.000000  16.600183  16.600184  26.896000   # C_2
 451 1 5   0.000000  19.227983  16.444186  26.896000   # H_
 452 1 5   0.000000  16.444181  19.227984   0.000000   # H_
 453 1 10   0.000000  17.014384  15.381784  26.896000   # O_1
 454 1 10   0.000000  15.381782  17.014383   0.000000   # O_1
 455 2 7   0.000000  23.459321  14.814828  26.445330   # C_3
 456 2 7   0.000000  21.773496  17.159008  25.619332   # C_3
 457 2 7   0.000000  18.638357  24.836130   1.225020   # C_3
 458 2 7   0.000000  18.851641  23.323214   1.433676   # C_3
 459 2 7   0.000000  21.355136  15.699797  25.353547   # C_3