 (written by mofun)

432 atoms
96 bonds
192 angles
336 dihedrals
0 impropers

8 atom types
1 bond types
1 angle types
3 dihedral types
   0.000000  20.700400 xlo xhi
   0.000000  20.700400 ylo yhi
   0.000000  20.700400 zlo zhi

Masses

 1 91.2240   # Zr3+4
 2 15.9994   # O_3
 3 12.0107   # C_3
 4 1.0079   # H_
 5 12.0107   # C_2
 6 12.0107   # C_R
 7 15.9994   # O_1
 8 18.9984   # F_

Pair Coeffs

 1   0.069000   2.783168 # Zr3+4
 2   0.060000   3.118146 # O_3
 3   0.105000   3.430851 # C_3
 4   0.044000   2.571134 # H_
 5 0.105000 3.430851   # C_2
 6 0.105000 3.430851   # C_R
 7 0.060000 3.118146   # O_1
 8 0.050000 2.996983   # F_

Bond Coeffs

 1 443.203299 1.354566   # C_R F_

Angle Coeffs

 1 cosine/periodic  207.488907  -1  3   # C_R C_R F_

Dihedral Coeffs

 1 harmonic 3.368555 -1 2   # C_2 C_R C_R F_ M=4
 2 harmonic 3.368555 -1 2   # C_R C_R C_R F_ M=4
 3 harmonic 3.368555 -1 2   # F_ C_R C_R F_ M=4

Atoms

 1 1 1   0.000000   2.481771   0.000000   0.000000   # Zr3+4
 2 1 1   0.000000   2.481771  10.350200  10.350200   # Zr3+4
 3 1 1   0.000000  12.831971   0.000000  10.350200   # Zr3+4
 4 1 1   0.000000  12.831971  10.350200   0.000000   # Zr3+4
 5 1 1   0.000000  18.218629   0.000000   0.000000   # Zr3+4
 6 1 1   0.000000  18.218629  10.350200  10.350200   # Zr3+4
 7 1 1   0.000000   7.868429   0.000000  10.350200   # Zr3+4
 8 1 1   0.000000   7.868429  10.350200   0.000000   # Zr3+4
 9 1 1   0.000000   0.000000   2.481771   0.000000   # Zr3+4
 10 1 1   0.000000   0.000000  12.831971  10.350200   # Zr3+4
 11 1 1   0.000000  10.350200   2.481771  10.350200   # Zr3+4
 12 1 1   0.000000  10.350200  12.831971   0.000000   # Zr3+4
 13 1 1   0.000000   0.000000  18.218629   0.000000   # Zr3+4
 14 1 1   0.000000   0.000000   7.868429  10.350200   # Zr3+4
 15 1 1   0.000000  10.350200  18.218629  10.350200   # Zr3+4
 16 1 1   0.000000  10.350200   7.868429   0.000000   # Zr3+4
 17 1 1   0.000000   0.000000   0.000000   2.481771   # Zr3+4
 18 1 1   0.000000   0.000000  10.350200  12.831971   # Zr3+4
 19 1 1   0.000000  10.350200   0.000000  12.831971   # Zr3+4
 20 1 1   0.000000  10.350200  10.350200   2.481771   # Zr3+4
 21 1 1   0.000000   0.000000   0.000000  18.218629   # Zr3+4
 22 1 1   0.000000   0.000000  10.350200   7.868429   # Zr3+4
 23 1 1   0.000000  10.350200   0.000000   7.868429   # Zr3+4
 24 1 1   0.000000  10.350200  10.350200  18.218629   # Zr3+4
 25 1 2   0.000000   1.161292   9.188908   9.188908   # O_3
 26 1 2   0.000000  11.511492  19.539108   9.188908   # O_3
 27 1 2   0.000000  11.511492   9.188908  19.539108   # O_3
 28 1 2   0.000000   9.188908   1.161292   9.188908   # O_3
 29 1 2   0.000000   9.188908  11.511492  19.539108   # O_3
 30 1 2   0.000000  19.539108  19.539108   1.161292   # O_3
 31 1 2   0.000000  19.539108   9.188908  11.511492   # O_3
 32 1 2   0.000000   1.161292   1.161292   1.161292   # O_3
 33 1 2   0.000000  11.511492  11.511492   1.161292   # O_3
 34 1 2   0.000000  19.539108   1.161292   1.161292   # O_3
 35 1 2   0.000000  19.539108  11.511492  11.511492   # O_3
 36 1 2   0.000000   9.188908   1.161292  11.511492   # O_3
 37 1 2   0.000000   9.188908  11.511492   1.161292   # O_3
 38 1 2   0.000000   1.161292  19.539108   1.161292   # O_3
 39 1 2   0.000000   1.161292   9.188908  11.511492   # O_3
 40 1 2   0.000000  11.511492  19.539108  11.511492   # O_3
 41 1 2   0.000000  11.511492   9.188908   1.161292   # O_3
 42 1 2   0.000000  19.539108  19.539108  19.539108   # O_3
 43 1 2   0.000000  19.539108   9.188908   9.188908   # O_3
 44 1 2   0.000000   9.188908  19.539108   9.188908   # O_3
 45 1 2   0.000000   9.188908   9.188908  19.539108   # O_3
 46 1 2   0.000000   1.161292   1.161292  19.539108   # O_3
 47 1 2   0.000000   1.161292  11.511492   9.188908   # O_3
 48 1 2   0.000000  11.511492   1.161292   9.188908   # O_3
 49 1 5   0.000000   3.179581   0.000000  17.520819   # C_2
 50 1 7   0.000000   3.528595   0.000000  18.727815   # O_1
 51 1 7   0.000000   1.972577  20.700400  17.171832   # O_1
 52 1 6   0.000000   4.243569   0.000000  16.456806   # C_R
 53 1 6   0.000000   3.816555  20.700400  15.162811   # C_R
 54 2 8   0.000000   2.700552  20.700400  14.930824   # F_
 55 2 8   0.000000   4.580531  20.700400  13.051803   # F_
 56 1 6   0.000000   4.812543  20.700400  14.167800   # C_R
 57 1 6   0.000000   6.106548   0.000000  14.593785   # C_R
 58 1 6   0.000000   6.532563   0.000000  15.887781   # C_R
 59 1 6   0.000000   5.537574   0.000000  16.883792   # C_R
 60 2 8   0.000000   5.769587   0.000000  17.999789   # F_
 61 2 8   0.000000   7.648566   0.000000  16.119768   # F_
 62 1 7   0.000000   8.377540   0.000000  13.878760   # O_1
 63 1 5   0.000000   7.170536   0.000000  13.529773   # C_2
 64 1 7   0.000000   6.821523  20.700400  12.322777   # O_1
 65 1 5   0.000000   3.179581  10.350200   7.170619   # C_2
 66 1 7   0.000000   3.528595  10.350200   8.377615   # O_1
 67 1 7   0.000000   1.972577  10.350200   6.821632   # O_1
 68 1 6   0.000000   4.243569  10.350200   6.106606   # C_R
 69 1 6   0.000000   3.816555  10.350200   4.812611   # C_R
 70 2 8   0.000000   2.700552  10.350200   4.580624   # F_
 71 2 8   0.000000   4.580531  10.350200   2.701603   # F_
 72 1 6   0.000000   4.812543  10.350200   3.817600   # C_R
 73 1 6   0.000000   6.106548  10.350200   4.243585   # C_R
 74 1 6   0.000000   6.532563  10.350200   5.537581   # C_R
 75 1 6   0.000000   5.537574  10.350200   6.533592   # C_R
 76 2 8   0.000000   5.769587  10.350200   7.649589   # F_
 77 2 8   0.000000   7.648566  10.350200   5.769568   # F_
 78 1 7   0.000000   8.377540  10.350200   3.528560   # O_1
 79 1 5   0.000000   7.170536  10.350200   3.179573   # C_2
 80 1 7   0.000000   6.821523  10.350200   1.972577   # O_1
 81 1 5   0.000000  13.529781   0.000000   7.170619   # C_2
 82 1 7   0.000000  13.878795   0.000000   8.377615   # O_1
 83 1 7   0.000000  12.322777  20.700400   6.821632   # O_1
 84 1 6   0.000000  14.593769   0.000000   6.106606   # C_R
 85 1 6   0.000000  14.166755  20.700400   4.812611   # C_R
 86 2 8   0.000000  13.050752  20.700400   4.580624   # F_
 87 2 8   0.000000  14.930731  20.700400   2.701603   # F_
 88 1 6   0.000000  15.162743  20.700400   3.817600   # C_R
 89 1 6   0.000000  16.456748   0.000000   4.243585   # C_R
 90 1 6   0.000000  16.882763   0.000000   5.537581   # C_R
 91 1 6   0.000000  15.887774   0.000000   6.533592   # C_R
 92 2 8   0.000000  16.119787   0.000000   7.649589   # F_
 93 2 8   0.000000  17.998766   0.000000   5.769568   # F_
 94 1 7   0.000000  18.727740   0.000000   3.528560   # O_1
 95 1 5   0.000000  17.520736   0.000000   3.179573   # C_2
 96 1 7   0.000000  17.171723  20.700400   1.972577   # O_1
 97 1 5   0.000000  13.529781  10.350200  17.520819   # C_2
 98 1 7   0.000000  13.878795  10.350200  18.727815   # O_1
 99 1 7   0.000000  12.322777  10.350200  17.171832   # O_1
 100 1 6   0.000000  14.593769  10.350200  16.456806   # C_R
 101 1 6   0.000000  14.166755  10.350200  15.162811   # C_R
 102 2 8   0.000000  13.050752  10.350200  14.930824   # F_
 103 2 8   0.000000  14.930731  10.350200  13.051803   # F_
 104 1 6   0.000000  15.162743  10.350200  14.167800   # C_R
 105 1 6   0.000000  16.456748  10.350200  14.593785   # C_R
 106 1 6   0.000000  16.882763  10.350200  15.887781   # C_R
 107 1 6   0.000000  15.887774  10.350200  16.883792   # C_R
 108 2 8   0.000000  16.119787  10.350200  17.999789   # F_
 109 2 8   0.000000  17.998766  10.350200  16.119768   # F_
 110 1 7   0.000000  18.727740  10.350200  13.878760   # O_1
 111 1 5   0.000000  17.520736  10.350200  13.529773   # C_2
 112 1 7   0.000000  17.171723  10.350200  12.322777   # O_1
 113 1 5   0.000000  17.520819   0.000000  17.520819   # C_2
 114 1 7   0.000000  17.171805   0.000000  18.727815   # O_1
 115 1 7   0.000000  18.727823   0.000000  17.171832   # O_1
 116 1 6   0.000000  16.456831   0.000000  16.456806   # C_R
 117 1 6   0.000000  16.883845   0.000000  15.162811   # C_R
 118 2 8   0.000000  17.999848   0.000000  14.930824   # F_
 119 2 8   0.000000  16.119869   0.000000  13.051803   # F_
 120 1 6   0.000000  15.887857   0.000000  14.167800   # C_R
 121 1 6   0.000000  14.593852   0.000000  14.593785   # C_R
 122 1 6   0.000000  14.167837   0.000000  15.887781   # C_R
 123 1 6   0.000000  15.162826   0.000000  16.883792   # C_R
 124 2 8   0.000000  14.930813   0.000000  17.999789   # F_
 125 2 8   0.000000  13.051834   0.000000  16.119768   # F_
 126 1 7   0.000000  12.322860   0.000000  13.878760   # O_1
 127 1 5   0.000000  13.529864   0.000000  13.529773   # C_2
 128 1 7   0.000000  13.878877   0.000000  12.322777   # O_1
 129 1 5   0.000000  17.520819  10.350200   7.170619   # C_2
 130 1 7   0.000000  17.171805  10.350200   8.377615   # O_1
 131 1 7   0.000000  18.727823  10.350200   6.821632   # O_1
 132 1 6   0.000000  16.456831  10.350200   6.106606   # C_R
 133 1 6   0.000000  16.883845  10.350200   4.812611   # C_R
 134 2 8   0.000000  17.999848  10.350200   4.580624   # F_
 135 2 8   0.000000  16.119869  10.350200   2.701603   # F_
 136 1 6   0.000000  15.887857  10.350200   3.817600   # C_R
 137 1 6   0.000000  14.593852  10.350200   4.243585   # C_R
 138 1 6   0.000000  14.167837  10.350200   5.537581   # C_R
 139 1 6   0.000000  15.162826  10.350200   6.533592   # C_R
 140 2 8   0.000000  14.930813  10.350200   7.649589   # F_
 141 2 8   0.000000  13.051834  10.350200   5.769568   # F_
 142 1 7   0.000000  12.322860  10.350200   3.528560   # O_1
 143 1 5   0.000000  13.529864  10.350200   3.179573   # C_2
 144 1 7   0.000000  13.878877  10.350200   1.972577   # O_1
 145 1 5   0.000000   7.170619   0.000000   7.170619   # C_2
 146 1 7   0.000000   6.821605   0.000000   8.377615   # O_1
 147 1 7   0.000000   8.377623   0.000000   6.821632   # O_1
 148 1 6   0.000000   6.106631   0.000000   6.106606   # C_R
 149 1 6   0.000000   6.533645   0.000000   4.812611   # C_R
 150 2 8   0.000000   7.649648   0.000000   4.580624   # F_
 151 2 8   0.000000   5.769669   0.000000   2.701603   # F_
 152 1 6   0.000000   5.537657   0.000000   3.817600   # C_R
 153 1 6   0.000000   4.243652   0.000000   4.243585   # C_R
 154 1 6   0.000000   3.817637   0.000000   5.537581   # C_R
 155 1 6   0.000000   4.812626   0.000000   6.533592   # C_R
 156 2 8   0.000000   4.580613   0.000000   7.649589   # F_
 157 2 8   0.000000   2.701634   0.000000   5.769568   # F_
 158 1 7   0.000000   1.972660   0.000000   3.528560   # O_1
 159 1 5   0.000000   3.179664   0.000000   3.179573   # C_2
 160 1 7   0.000000   3.528677   0.000000   1.972577   # O_1
 161 1 5   0.000000   7.170619  10.350200  17.520819   # C_2
 162 1 7   0.000000   6.821605  10.350200  18.727815   # O_1
 163 1 7   0.000000   8.377623  10.350200  17.171832   # O_1
 164 1 6   0.000000   6.106631  10.350200  16.456806   # C_R
 165 1 6   0.000000   6.533645  10.350200  15.162811   # C_R
 166 2 8   0.000000   7.649648  10.350200  14.930824   # F_
 167 2 8   0.000000   5.769669  10.350200  13.051803   # F_
 168 1 6   0.000000   5.537657  10.350200  14.167800   # C_R
 169 1 6   0.000000   4.243652  10.350200  14.593785   # C_R
 170 1 6   0.000000   3.817637  10.350200  15.887781   # C_R
 171 1 6   0.000000   4.812626  10.350200  16.883792   # C_R
 172 2 8   0.000000   4.580613  10.350200  17.999789   # F_
 173 2 8   0.000000   2.701634  10.350200  16.119768   # F_
 174 1 7   0.000000   1.972660  10.350200  13.878760   # O_1
 175 1 5   0.000000   3.179664  10.350200  13.529773   # C_2
 176 1 7   0.000000   3.528677  10.350200  12.322777   # O_1
 177 1 5   0.000000  17.520819   3.179581   0.000000   # C_2
 178 1 7   0.000000  18.727815   3.528595  20.700400   # O_1
 179 1 7   0.000000  17.171832   1.972577   0.000000   # O_1
 180 1 6   0.000000  16.456806   4.243569  20.700400   # C_R
 181 1 6   0.000000  15.162811   3.816555   0.000000   # C_R
 182 2 8   0.000000  14.930824   2.700552   0.000000   # F_
 183 2 8   0.000000  13.051803   4.580531   0.000000   # F_
 184 1 6   0.000000  14.167800   4.812543   0.000000   # C_R
 185 1 6   0.000000  14.593785   6.106548  20.700400   # C_R
 186 1 6   0.000000  15.887781   6.532563  20.700400   # C_R
 187 1 6   0.000000  16.883792   5.537574  20.700400   # C_R
 188 2 8   0.000000  17.999789   5.769587  20.700400   # F_
 189 2 8   0.000000  16.119768   7.648566  20.700400   # F_
 190 1 7   0.000000  13.878760   8.377540  20.700400   # O_1
 191 1 5   0.000000  13.529773   7.170536  20.700400   # C_2
 192 1 7   0.000000  12.322777   6.821523   0.000000   # O_1
 193 1 5   0.000000  17.520819  13.529781  10.350200   # C_2
 194 1 7   0.000000  18.727815  13.878795  10.350200   # O_1
 195 1 7   0.000000  17.171832  12.322777  10.350200   # O_1
 196 1 6   0.000000  16.456806  14.593769  10.350200   # C_R
 197 1 6   0.000000  15.162811  14.166755  10.350200   # C_R
 198 2 8   0.000000  14.930824  13.050752  10.350200   # F_
 199 2 8   0.000000  13.051803  14.930731  10.350200   # F_
 200 1 6   0.000000  14.167800  15.162743  10.350200   # C_R
 201 1 6   0.000000  14.593785  16.456748  10.350200   # C_R
 202 1 6   0.000000  15.887781  16.882763  10.350200   # C_R
 203 1 6   0.000000  16.883792  15.887774  10.350200   # C_R
 204 2 8   0.000000  17.999789  16.119787  10.350200   # F_
 205 2 8   0.000000  16.119768  17.998766  10.350200   # F_
 206 1 7   0.000000  13.878760  18.727740  10.350200   # O_1
 207 1 5   0.000000  13.529773  17.520736  10.350200   # C_2
 208 1 7   0.000000  12.322777  17.171723  10.350200   # O_1
 209 1 5   0.000000   7.170619   3.179581  10.350200   # C_2
 210 1 7   0.000000   8.377615   3.528595  10.350200   # O_1
 211 1 7   0.000000   6.821632   1.972577  10.350200   # O_1
 212 1 6   0.000000   6.106606   4.243569  10.350200   # C_R
 213 1 6   0.000000   4.812611   3.816555  10.350200   # C_R
 214 2 8   0.000000   4.580624   2.700552  10.350200   # F_
 215 2 8   0.000000   2.701603   4.580531  10.350200   # F_
 216 1 6   0.000000   3.817600   4.812543  10.350200   # C_R
 217 1 6   0.000000   4.243585   6.106548  10.350200   # C_R
 218 1 6   0.000000   5.537581   6.532563  10.350200   # C_R
 219 1 6   0.000000   6.533592   5.537574  10.350200   # C_R
 220 2 8   0.000000   7.649589   5.769587  10.350200   # F_
 221 2 8   0.000000   5.769568   7.648566  10.350200   # F_
 222 1 7   0.000000   3.528560   8.377540  10.350200   # O_1
 223 1 5   0.000000   3.179573   7.170536  10.350200   # C_2
 224 1 7   0.000000   1.972577   6.821523  10.350200   # O_1
 225 1 5   0.000000   7.170619  13.529781   0.000000   # C_2
 226 1 7   0.000000   8.377615  13.878795   0.000000   # O_1
 227 1 7   0.000000   6.821632  12.322777  20.700400   # O_1
 228 1 6   0.000000   6.106606  14.593769   0.000000   # C_R
 229 1 6   0.000000   4.812611  14.166755   0.000000   # C_R
 230 2 8   0.000000   4.580624  13.050752  20.700400   # F_
 231 2 8   0.000000   2.701603  14.930731   0.000000   # F_
 232 1 6   0.000000   3.817600  15.162743   0.000000   # C_R
 233 1 6   0.000000   4.243585  16.456748   0.000000   # C_R
 234 1 6   0.000000   5.537581  16.882763   0.000000   # C_R
 235 1 6   0.000000   6.533592  15.887774   0.000000   # C_R
 236 2 8   0.000000   7.649589  16.119787   0.000000   # F_
 237 2 8   0.000000   5.769568  17.998766   0.000000   # F_
 238 1 7   0.000000   3.528560  18.727740   0.000000   # O_1
 239 1 5   0.000000   3.179573  17.520736   0.000000   # C_2
 240 1 7   0.000000   1.972577  17.171723   0.000000   # O_1
 241 1 5   0.000000  17.520819  17.520819   0.000000   # C_2
 242 1 7   0.000000  18.727815  17.171805  20.700400   # O_1
 243 1 7   0.000000  17.171832  18.727823   0.000000   # O_1
 244 1 6   0.000000  16.456806  16.456831   0.000000   # C_R
 245 1 6   0.000000  15.162811  16.883845   0.000000   # C_R
 246 2 8   0.000000  14.930824  17.999848   0.000000   # F_
 247 2 8   0.000000  13.051803  16.119869   0.000000   # F_
 248 1 6   0.000000  14.167800  15.887857   0.000000   # C_R
 249 1 6   0.000000  14.593785  14.593852   0.000000   # C_R
 250 1 6   0.000000  15.887781  14.167837  20.700400   # C_R
 251 1 6   0.000000  16.883792  15.162826  20.700400   # C_R
 252 2 8   0.000000  17.999789  14.930813  20.700400   # F_
 253 2 8   0.000000  16.119768  13.051834  20.700400   # F_
 254 1 7   0.000000  13.878760  12.322860  20.700400   # O_1
 255 1 5   0.000000  13.529773  13.529864   0.000000   # C_2
 256 1 7   0.000000  12.322777  13.878877   0.000000   # O_1
 257 1 5   0.000000  17.520819   7.170619  10.350200   # C_2
 258 1 7   0.000000  18.727815   6.821605  10.350200   # O_1
 259 1 7   0.000000  17.171832   8.377623  10.350200   # O_1
 260 1 6   0.000000  16.456806   6.106631  10.350200   # C_R
 261 1 6   0.000000  15.162811   6.533645  10.350200   # C_R
 262 2 8   0.000000  14.930824   7.649648  10.350200   # F_
 263 2 8   0.000000  13.051803   5.769669  10.350200   # F_
 264 1 6   0.000000  14.167800   5.537657  10.350200   # C_R
 265 1 6   0.000000  14.593785   4.243652  10.350200   # C_R
 266 1 6   0.000000  15.887781   3.817637  10.350200   # C_R
 267 1 6   0.000000  16.883792   4.812626  10.350200   # C_R
 268 2 8   0.000000  17.999789   4.580613  10.350200   # F_
 269 2 8   0.000000  16.119768   2.701634  10.350200   # F_
 270 1 7   0.000000  13.878760   1.972660  10.350200   # O_1
 271 1 5   0.000000  13.529773   3.179664  10.350200   # C_2
 272 1 7   0.000000  12.322777   3.528677  10.350200   # O_1
 273 1 5   0.000000   7.170619  17.520819  10.350200   # C_2
 274 1 7   0.000000   8.377615  17.171805  10.350200   # O_1
 275 1 7   0.000000   6.821632  18.727823  10.350200   # O_1
 276 1 6   0.000000   6.106606  16.456831  10.350200   # C_R
 277 1 6   0.000000   4.812611  16.883845  10.350200   # C_R
 278 2 8   0.000000   4.580624  17.999848  10.350200   # F_
 279 2 8   0.000000   2.701603  16.119869  10.350200   # F_
 280 1 6   0.000000   3.817600  15.887857  10.350200   # C_R
 281 1 6   0.000000   4.243585  14.593852  10.350200   # C_R
 282 1 6   0.000000   5.537581  14.167837  10.350200   # C_R
 283 1 6   0.000000   6.533592  15.162826  10.350200   # C_R
 284 2 8   0.000000   7.649589  14.930813  10.350200   # F_
 285 2 8   0.000000   5.769568  13.051834  10.350200   # F_
 286 1 7   0.000000   3.528560  12.322860  10.350200   # O_1
 287 1 5   0.000000   3.179573  13.529864  10.350200   # C_2
 288 1 7   0.000000   1.972577  13.878877  10.350200   # O_1
 289 1 5   0.000000   7.170619   7.170619   0.000000   # C_2
 290 1 7   0.000000   8.377615   6.821605  20.700400   # O_1
 291 1 7   0.000000   6.821632   8.377623   0.000000   # O_1
 292 1 6   0.000000   6.106606   6.106631   0.000000   # C_R
 293 1 6   0.000000   4.812611   6.533645   0.000000   # C_R
 294 2 8   0.000000   4.580624   7.649648   0.000000   # F_
 295 2 8   0.000000   2.701603   5.769669   0.000000   # F_
 296 1 6   0.000000   3.817600   5.537657   0.000000   # C_R
 297 1 6   0.000000   4.243585   4.243652   0.000000   # C_R
 298 1 6   0.000000   5.537581   3.817637   0.000000   # C_R
 299 1 6   0.000000   6.533592   4.812626  20.700400   # C_R
 300 2 8   0.000000   7.649589   4.580613   0.000000   # F_
 301 2 8   0.000000   5.769568   2.701634  20.700400   # F_
 302 1 7   0.000000   3.528560   1.972660   0.000000   # O_1
 303 1 5   0.000000   3.179573   3.179664   0.000000   # C_2
 304 1 7   0.000000   1.972577   3.528677   0.000000   # O_1
 305 1 5   0.000000   0.000000  17.520819   3.179581   # C_2
 306 1 7   0.000000   0.000000  18.727815   3.528595   # O_1
 307 1 7   0.000000  20.700400  17.171832   1.972577   # O_1
 308 1 6   0.000000   0.000000  16.456806   4.243569   # C_R
 309 1 6   0.000000   0.000000  15.162811   3.816555   # C_R
 310 2 8   0.000000  20.700400  14.930824   2.700552   # F_
 311 2 8   0.000000   0.000000  13.051803   4.580531   # F_
 312 1 6   0.000000   0.000000  14.167800   4.812543   # C_R
 313 1 6   0.000000   0.000000  14.593785   6.106548   # C_R
 314 1 6   0.000000   0.000000  15.887781   6.532563   # C_R
 315 1 6   0.000000   0.000000  16.883792   5.537574   # C_R
 316 2 8   0.000000   0.000000  17.999789   5.769587   # F_
 317 2 8   0.000000   0.000000  16.119768   7.648566   # F_
 318 1 7   0.000000   0.000000  13.878760   8.377540   # O_1
 319 1 5   0.000000   0.000000  13.529773   7.170536   # C_2
 320 1 7   0.000000   0.000000  12.322777   6.821523   # O_1
 321 1 5   0.000000   0.000000   7.170619  13.529781   # C_2
 322 1 7   0.000000   0.000000   8.377615  13.878795   # O_1
 323 1 7   0.000000  20.700400   6.821632  12.322777   # O_1
 324 1 6   0.000000   0.000000   6.106606  14.593769   # C_R
 325 1 6   0.000000   0.000000   4.812611  14.166755   # C_R
 326 2 8   0.000000  20.700400   4.580624  13.050752   # F_
 327 2 8   0.000000   0.000000   2.701603  14.930731   # F_
 328 1 6   0.000000   0.000000   3.817600  15.162743   # C_R
 329 1 6   0.000000   0.000000   4.243585  16.456748   # C_R
 330 1 6   0.000000   0.000000   5.537581  16.882763   # C_R
 331 1 6   0.000000   0.000000   6.533592  15.887774   # C_R
 332 2 8   0.000000   0.000000   7.649589  16.119787   # F_
 333 2 8   0.000000   0.000000   5.769568  17.998766   # F_
 334 1 7   0.000000   0.000000   3.528560  18.727740   # O_1
 335 1 5   0.000000   0.000000   3.179573  17.520736   # C_2
 336 1 7   0.000000   0.000000   1.972577  17.171723   # O_1
 337 1 5   0.000000  10.350200  17.520819  13.529781   # C_2
 338 1 7   0.000000  10.350200  18.727815  13.878795   # O_1
 339 1 7   0.000000  10.350200  17.171832  12.322777   # O_1
 340 1 6   0.000000  10.350200  16.456806  14.593769   # C_R
 341 1 6   0.000000  10.350200  15.162811  14.166755   # C_R
 342 2 8   0.000000  10.350200  14.930824  13.050752   # F_
 343 2 8   0.000000  10.350200  13.051803  14.930731   # F_
 344 1 6   0.000000  10.350200  14.167800  15.162743   # C_R
 345 1 6   0.000000  10.350200  14.593785  16.456748   # C_R
 346 1 6   0.000000  10.350200  15.887781  16.882763   # C_R
 347 1 6   0.000000  10.350200  16.883792  15.887774   # C_R
 348 2 8   0.000000  10.350200  17.999789  16.119787   # F_
 349 2 8   0.000000  10.350200  16.119768  17.998766   # F_
 350 1 7   0.000000  10.350200  13.878760  18.727740   # O_1
 351 1 5   0.000000  10.350200  13.529773  17.520736   # C_2
 352 1 7   0.000000  10.350200  12.322777  17.171723   # O_1
 353 1 5   0.000000  10.350200   7.170619   3.179581   # C_2
 354 1 7   0.000000  10.350200   8.377615   3.528595   # O_1
 355 1 7   0.000000  10.350200   6.821632   1.972577   # O_1
 356 1 6   0.000000  10.350200   6.106606   4.243569   # C_R
 357 1 6   0.000000  10.350200   4.812611   3.816555   # C_R
 358 2 8   0.000000  10.350200   4.580624   2.700552   # F_
 359 2 8   0.000000  10.350200   2.701603   4.580531   # F_
 360 1 6   0.000000  10.350200   3.817600   4.812543   # C_R
 361 1 6   0.000000  10.350200   4.243585   6.106548   # C_R
 362 1 6   0.000000  10.350200   5.537581   6.532563   # C_R
 363 1 6   0.000000  10.350200   6.533592   5.537574   # C_R
 364 2 8   0.000000  10.350200   7.649589   5.769587   # F_
 365 2 8   0.000000  10.350200   5.769568   7.648566   # F_
 366 1 7   0.000000  10.350200   3.528560   8.377540   # O_1
 367 1 5   0.000000  10.350200   3.179573   7.170536   # C_2
 368 1 7   0.000000  10.350200   1.972577   6.821523   # O_1
 369 1 5   0.000000   0.000000  17.520819  17.520819   # C_2
 370 1 7   0.000000  20.700400  18.727815  17.171805   # O_1
 371 1 7   0.000000   0.000000  17.171832  18.727823   # O_1
 372 1 6   0.000000  20.700400  16.456806  16.456831   # C_R
 373 1 6   0.000000   0.000000  15.162811  16.883845   # C_R
 374 2 8   0.000000   0.000000  14.930824  17.999848   # F_
 375 2 8   0.000000   0.000000  13.051803  16.119869   # F_
 376 1 6   0.000000   0.000000  14.167800  15.887857   # C_R
 377 1 6   0.000000   0.000000  14.593785  14.593852   # C_R
 378 1 6   0.000000  20.700400  15.887781  14.167837   # C_R
 379 1 6   0.000000   0.000000  16.883792  15.162826   # C_R
 380 2 8   0.000000  20.700400  17.999789  14.930813   # F_
 381 2 8   0.000000  20.700400  16.119768  13.051834   # F_
 382 1 7   0.000000   0.000000  13.878760  12.322860   # O_1
 383 1 5   0.000000   0.000000  13.529773  13.529864   # C_2
 384 1 7   0.000000   0.000000  12.322777  13.878877   # O_1
 385 1 5   0.000000   0.000000   7.170619   7.170619   # C_2
 386 1 7   0.000000   0.000000   8.377615   6.821605   # O_1
 387 1 7   0.000000   0.000000   6.821632   8.377623   # O_1
 388 1 6   0.000000  20.700400   6.106606   6.106631   # C_R
 389 1 6   0.000000   0.000000   4.812611   6.533645   # C_R
 390 2 8   0.000000  20.700400   4.580624   7.649648   # F_
 391 2 8   0.000000   0.000000   2.701603   5.769669   # F_
 392 1 6   0.000000  20.700400   3.817600   5.537657   # C_R
 393 1 6   0.000000   0.000000   4.243585   4.243652   # C_R
 394 1 6   0.000000  20.700400   5.537581   3.817637   # C_R
 395 1 6   0.000000   0.000000   6.533592   4.812626   # C_R
 396 2 8   0.000000   0.000000   7.649589   4.580613   # F_
 397 2 8   0.000000   0.000000   5.769568   2.701634   # F_
 398 1 7   0.000000   0.000000   3.528560   1.972660   # O_1
 399 1 5   0.000000   0.000000   3.179573   3.179664   # C_2
 400 1 7   0.000000   0.000000   1.972577   3.528677   # O_1
 401 1 5   0.000000  10.350200  17.520819   7.170619   # C_2
 402 1 7   0.000000  10.350200  18.727815   6.821605   # O_1
 403 1 7   0.000000  10.350200  17.171832   8.377623   # O_1
 404 1 6   0.000000  10.350200  16.456806   6.106631   # C_R
 405 1 6   0.000000  10.350200  15.162811   6.533645   # C_R
 406 2 8   0.000000  10.350200  14.930824   7.649648   # F_
 407 2 8   0.000000  10.350200  13.051803   5.769669   # F_
 408 1 6   0.000000  10.350200  14.167800   5.537657   # C_R
 409 1 6   0.000000  10.350200  14.593785   4.243652   # C_R
 410 1 6   0.000000  10.350200  15.887781   3.817637   # C_R
 411 1 6   0.000000  10.350200  16.883792   4.812626   # C_R
 412 2 8   0.000000  10.350200  17.999789   4.580613   # F_
 413 2 8   0.000000  10.350200  16.119768   2.701634   # F_
 414 1 7   0.000000  10.350200  13.878760   1.972660   # O_1
 415 1 5   0.000000  10.350200  13.529773   3.179664   # C_2
 416 1 7   0.000000  10.350200  12.322777   3.528677   # O_1
 417 1 5   0.000000  10.350200   7.170619  17.520819   # C_2
 418 1 7   0.000000  10.350200   8.377615  17.171805   # O_1
 419 1 7   0.000000  10.350200   6.821632  18.727823   # O_1
 420 1 6   0.000000  10.350200   6.106606  16.456831   # C_R
 421 1 6   0.000000  10.350200   4.812611  16.883845   # C_R
 422 2 8   0.000000  10.350200   4.580624  17.999848   # F_
 423 2 8   0.000000  10.350200   2.701603  16.119869   # F_
 424 1 6   0.000000  10.350200   3.817600  15.887857   # C_R
 425 1 6   0.000000  10.350200   4.243585  14.593852   # C_R
 426 1 6   0.000000  10.350200   5.537581  14.167837   # C_R
 427 1 6   0.000000  10.350200   6.533592  15.162826   # C_R
 428 2 8   0.000000  10.350200   7.649589  14.930813   # F_
 429 2 8   0.000000  10.350200   5.769568  13.051834   # F_
 430 1 7   0.000000  10.350200   3.528560  12.322860   # O_1
 431 1 5   0.000000  10.350200   3.179573  13.529864   # C_2
 432 1 7   0.000000  10.350200   1.972577  13.878877   # O_1

Bonds

 1 1 59 60   # C_R F_
 2 1 58 61   # C_R F_
 3 1 53 54   # C_R F_
 4 1 55 56   # F_ C_R
 5 1 75 76   # C_R F_
 6 1 74 77   # C_R F_
 7 1 69 70   # C_R F_
 8 1 71 72   # F_ C_R
 9 1 91 92   # C_R F_
 10 1 90 93   # C_R F_
 11 1 85 86   # C_R F_
 12 1 87 88   # F_ C_R
 13 1 107 108   # C_R F_
 14 1 106 109   # C_R F_
 15 1 101 102   # C_R F_
 16 1 103 104   # F_ C_R
 17 1 123 124   # C_R F_
 18 1 122 125   # C_R F_
 19 1 117 118   # C_R F_
 20 1 119 120   # F_ C_R
 21 1 139 140   # C_R F_
 22 1 138 141   # C_R F_
 23 1 133 134   # C_R F_
 24 1 135 136   # F_ C_R
 25 1 155 156   # C_R F_
 26 1 154 157   # C_R F_
 27 1 149 150   # C_R F_
 28 1 151 152   # F_ C_R
 29 1 171 172   # C_R F_
 30 1 170 173   # C_R F_
 31 1 165 166   # C_R F_
 32 1 167 168   # F_ C_R
 33 1 187 188   # C_R F_
 34 1 186 189   # C_R F_
 35 1 181 182   # C_R F_
 36 1 183 184   # F_ C_R
 37 1 203 204   # C_R F_
 38 1 202 205   # C_R F_
 39 1 197 198   # C_R F_
 40 1 199 200   # F_ C_R
 41 1 219 220   # C_R F_
 42 1 218 221   # C_R F_
 43 1 213 214   # C_R F_
 44 1 215 216   # F_ C_R
 45 1 235 236   # C_R F_
 46 1 234 237   # C_R F_
 47 1 229 230   # C_R F_
 48 1 231 232   # F_ C_R
 49 1 251 252   # C_R F_
 50 1 250 253   # C_R F_
 51 1 245 246   # C_R F_
 52 1 247 248   # F_ C_R
 53 1 267 268   # C_R F_
 54 1 266 269   # C_R F_
 55 1 261 262   # C_R F_
 56 1 263 264   # F_ C_R
 57 1 283 284   # C_R F_
 58 1 282 285   # C_R F_
 59 1 277 278   # C_R F_
 60 1 279 280   # F_ C_R
 61 1 299 300   # C_R F_
 62 1 298 301   # C_R F_
 63 1 293 294   # C_R F_
 64 1 295 296   # F_ C_R
 65 1 315 316   # C_R F_
 66 1 314 317   # C_R F_
 67 1 309 310   # C_R F_
 68 1 311 312   # F_ C_R
 69 1 331 332   # C_R F_
 70 1 330 333   # C_R F_
 71 1 325 326   # C_R F_
 72 1 327 328   # F_ C_R
 73 1 347 348   # C_R F_
 74 1 346 349   # C_R F_
 75 1 341 342   # C_R F_
 76 1 343 344   # F_ C_R
 77 1 363 364   # C_R F_
 78 1 362 365   # C_R F_
 79 1 357 358   # C_R F_
 80 1 359 360   # F_ C_R
 81 1 379 380   # C_R F_
 82 1 378 381   # C_R F_
 83 1 373 374   # C_R F_
 84 1 375 376   # F_ C_R
 85 1 395 396   # C_R F_
 86 1 394 397   # C_R F_
 87 1 389 390   # C_R F_
 88 1 391 392   # F_ C_R
 89 1 411 412   # C_R F_
 90 1 410 413   # C_R F_
 91 1 405 406   # C_R F_
 92 1 407 408   # F_ C_R
 93 1 427 428   # C_R F_
 94 1 426 429   # C_R F_
 95 1 421 422   # C_R F_
 96 1 423 424   # F_ C_R

Angles

 1 1 60 59 52   # F_ C_R C_R
 2 1 60 59 58   # F_ C_R C_R
 3 1 59 58 61   # C_R C_R F_
 4 1 61 58 57   # F_ C_R C_R
 5 1 52 53 54   # C_R C_R F_
 6 1 54 53 56   # F_ C_R C_R
 7 1 53 56 55   # C_R C_R F_
 8 1 57 56 55   # C_R C_R F_
 9 1 76 75 68   # F_ C_R C_R
 10 1 76 75 74   # F_ C_R C_R
 11 1 75 74 77   # C_R C_R F_
 12 1 77 74 73   # F_ C_R C_R
 13 1 68 69 70   # C_R C_R F_
 14 1 70 69 72   # F_ C_R C_R
 15 1 69 72 71   # C_R C_R F_
 16 1 73 72 71   # C_R C_R F_