 (written by mofun)

792 atoms
408 bonds
840 angles
1416 dihedrals
0 impropers

10 atom types
5 bond types
9 angle types
14 dihedral types
   0.000000  20.700400 xlo xhi
   0.000000  20.700400 ylo yhi
   0.000000  20.700400 zlo zhi

Masses

 1 91.2240   # Zr3+4
 2 15.9994   # O_3
 3 12.0107   # C_3
 4 1.0079   # H_
 5 1.0079   # H_
 6 12.0107   # C_2
 7 12.0107   # C_3
 8 12.0107   # C_R
 9 14.0067   # N_3
 10 15.9994   # O_1

Pair Coeffs

 1   0.069000   2.783168 # Zr3+4
 2   0.060000   3.118146 # O_3
 3   0.105000   3.430851 # C_3
 4   0.044000   2.571134 # H_
 5 0.044000 2.571134   # H_
 6 0.105000 3.430851   # C_2
 7 0.105000 3.430851   # C_3
 8 0.105000 3.430851   # C_R
 9 0.069000 3.260689   # N_3
 10 0.060000 3.118146   # O_1

Bond Coeffs

 1 560.312976 1.423192   # C_R N_3
 2 527.945261 1.044419   # H_ N_3
 3 528.634538 1.451071   # C_3 N_3
 4 331.069389 1.109401   # C_3 H_
 5 349.795899 1.514000   # C_3 C_3

Angle Coeffs

 1 cosine/periodic  282.369526  -1  3   # C_R C_R N_3
 2 fourier  150.574599  0.317506  0.313225  0.272502   # C_R N_3 H_
 3 fourier  268.482172  0.317506  0.313225  0.272502   # C_3 N_3 C_R
 4 fourier  144.695053  0.317506  0.313225  0.272502   # C_3 N_3 H_
 5 fourier  169.780468  0.343737  0.374972  0.281246   # H_ C_3 N_3
 6 fourier  303.297032  0.343737  0.374972  0.281246   # C_3 C_3 N_3
 7 fourier  117.318683  0.343737  0.374972  0.281246   # C_3 C_3 H_
 8 fourier  214.211821  0.343737  0.374972  0.281246   # C_3 C_3 C_3
 9 fourier  75.498766  0.343737  0.374972  0.281246   # H_ C_3 H_

Dihedral Coeffs

 1 harmonic 3.368555 -1 2   # C_2 C_R C_R N_3 M=4
 2 harmonic 3.368555 -1 2   # C_R C_R C_R N_3 M=4
 3 harmonic 0.125000 -1 6   # C_R C_R N_3 H_ M=4
 4 harmonic 0.125000 -1 6   # C_3 N_3 C_R C_R M=4
 5 harmonic 3.368555 -1 2   # H_ C_R C_R N_3 M=4
 6 harmonic 0.081375 1 3   # C_R N_3 C_3 H_ M=6
 7 harmonic 0.081375 1 3   # C_3 C_3 N_3 C_R M=6
 8 harmonic 0.081375 1 3   # H_ C_3 N_3 H_ M=6
 9 harmonic 0.081375 1 3   # C_3 C_3 N_3 H_ M=6
 10 harmonic 0.117722 1 3   # C_3 C_3 C_3 N_3 M=9
 11 harmonic 0.117722 1 3   # H_ C_3 C_3 N_3 M=9
 12 harmonic 0.117722 1 3   # C_3 C_3 C_3 H_ M=9
 13 harmonic 0.117722 1 3   # H_ C_3 C_3 H_ M=9
 14 harmonic 0.117722 1 3   # C_3 C_3 C_3 C_3 M=9

Atoms

 1 1 1   0.000000   2.481771   0.000000   0.000000   # Zr3+4
 2 1 1   0.000000   2.481771  10.350200  10.350200   # Zr3+4
 3 1 1   0.000000  12.831971   0.000000  10.350200   # Zr3+4
 4 1 1   0.000000  12.831971  10.350200   0.000000   # Zr3+4
 5 1 1   0.000000  18.218629   0.000000   0.000000   # Zr3+4
 6 1 1   0.000000  18.218629  10.350200  10.350200   # Zr3+4
 7 1 1   0.000000   7.868429   0.000000  10.350200   # Zr3+4
 8 1 1   0.000000   7.868429  10.350200   0.000000   # Zr3+4
 9 1 1   0.000000   0.000000   2.481771   0.000000   # Zr3+4
 10 1 1   0.000000   0.000000  12.831971  10.350200   # Zr3+4
 11 1 1   0.000000  10.350200   2.481771  10.350200   # Zr3+4
 12 1 1   0.000000  10.350200  12.831971   0.000000   # Zr3+4
 13 1 1   0.000000   0.000000  18.218629   0.000000   # Zr3+4
 14 1 1   0.000000   0.000000   7.868429  10.350200   # Zr3+4
 15 1 1   0.000000  10.350200  18.218629  10.350200   # Zr3+4
 16 1 1   0.000000  10.350200   7.868429   0.000000   # Zr3+4
 17 1 1   0.000000   0.000000   0.000000   2.481771   # Zr3+4
 18 1 1   0.000000   0.000000  10.350200  12.831971   # Zr3+4
 19 1 1   0.000000  10.350200   0.000000  12.831971   # Zr3+4
 20 1 1   0.000000  10.350200  10.350200   2.481771   # Zr3+4
 21 1 1   0.000000   0.000000   0.000000  18.218629   # Zr3+4
 22 1 1   0.000000   0.000000  10.350200   7.868429   # Zr3+4
 23 1 1   0.000000  10.350200   0.000000   7.868429   # Zr3+4
 24 1 1   0.000000  10.350200  10.350200  18.218629   # Zr3+4
 25 1 2   0.000000   1.161292   9.188908   9.188908   # O_3
 26 1 2   0.000000  11.511492  19.539108   9.188908   # O_3
 27 1 2   0.000000  11.511492   9.188908  19.539108   # O_3
 28 1 2   0.000000   9.188908   1.161292   9.188908   # O_3
 29 1 2   0.000000   9.188908  11.511492  19.539108   # O_3
 30 1 2   0.000000  19.539108  19.539108   1.161292   # O_3
 31 1 2   0.000000  19.539108   9.188908  11.511492   # O_3
 32 1 2   0.000000   1.161292   1.161292   1.161292   # O_3
 33 1 2   0.000000  11.511492  11.511492   1.161292   # O_3
 34 1 2   0.000000  19.539108   1.161292   1.161292   # O_3
 35 1 2   0.000000  19.539108  11.511492  11.511492   # O_3
 36 1 2   0.000000   9.188908   1.161292  11.511492   # O_3
 37 1 2   0.000000   9.188908  11.511492   1.161292   # O_3
 38 1 2   0.000000   1.161292  19.539108   1.161292   # O_3
 39 1 2   0.000000   1.161292   9.188908  11.511492   # O_3
 40 1 2   0.000000  11.511492  19.539108  11.511492   # O_3
 41 1 2   0.000000  11.511492   9.188908   1.161292   # O_3
 42 1 2   0.000000  19.539108  19.539108  19.539108   # O_3
 43 1 2   0.000000  19.539108   9.188908   9.188908   # O_3
 44 1 2   0.000000   9.188908  19.539108   9.188908   # O_3
 45 1 2   0.000000   9.188908   9.188908  19.539108   # O_3
 46 1 2   0.000000   1.161292   1.161292  19.539108   # O_3
 47 1 2   0.000000   1.161292  11.511492   9.188908   # O_3
 48 1 2   0.000000  11.511492   1.161292   9.188908   # O_3
 49 1 6   0.000000   3.179581   0.000000  17.520819   # C_2
 50 1 10   0.000000   3.528595   0.000000  18.727815   # O_1
 51 1 10   0.000000   1.972577  20.700400  17.171832   # O_1
 52 1 8   0.000000   4.243569   0.000000  16.456806   # C_R
 53 1 8   0.000000   3.816555  20.700400  15.162811   # C_R
 54 2 9   0.000000   2.481447   0.185423  14.721613   # N_3
 55 1 5   0.000000   4.580531  20.700400  13.051803   # H_
 56 1 8   0.000000   4.812543  20.700400  14.167800   # C_R
 57 1 8   0.000000   6.106548   0.000000  14.593785   # C_R
 58 1 8   0.000000   6.532563   0.000000  15.887781   # C_R
 59 1 8   0.000000   5.537574   0.000000  16.883792   # C_R
 60 1 5   0.000000   5.769587   0.000000  17.999789   # H_
 61 1 5   0.000000   7.648566   0.000000  16.119768   # H_
 62 1 10   0.000000   8.377540   0.000000  13.878760   # O_1
 63 1 6   0.000000   7.170536   0.000000  13.529773   # C_2
 64 1 10   0.000000   6.821523  20.700400  12.322777   # O_1
 65 2 5   0.000000   1.896341   0.086281  15.579784   # H_
 66 2 7   0.000000   2.206978   1.445650  14.028280   # C_3
 67 2 5   0.000000   2.947663   1.636409  13.243597   # H_
 68 2 7   0.000000   2.127672   2.642436  14.986090   # C_3
 69 2 7   0.000000   0.808398   1.353542  13.384054   # C_3
 70 2 7   0.000000  20.684448   2.492052  13.976063   # C_3
 71 2 5   0.000000  19.629125   2.225803  14.085707   # H_
 72 2 5   0.000000   0.043469   3.372161  13.324551   # H_
 73 2 7   0.000000   0.648210   2.785306  15.307971   # C_3
 74 2 5   0.000000   2.467854   3.544713  14.461858   # H_
 75 2 5   0.000000   2.733890   2.543520  15.890053   # H_
 76 2 5   0.000000   0.342492   2.047627  16.058167   # H_
 77 2 5   0.000000   0.399927   3.781495  15.684875   # H_
 78 2 5   0.000000   0.325087   0.391448  13.593608   # H_
 79 2 5   0.000000   0.867583   1.451383  12.294362   # H_
 80 1 6   0.000000   3.179581  10.350200   7.170619   # C_2
 81 1 10   0.000000   3.528595  10.350200   8.377615   # O_1
 82 1 10   0.000000   1.972577  10.350200   6.821632   # O_1
 83 1 8   0.000000   4.243569  10.350200   6.106606   # C_R
 84 1 8   0.000000   3.816555  10.350200   4.812611   # C_R
 85 2 9   0.000000   2.481447  10.535623   4.371413   # N_3
 86 1 5   0.000000   4.580531  10.350200   2.701603   # H_
 87 1 8   0.000000   4.812543  10.350200   3.817600   # C_R
 88 1 8   0.000000   6.106548  10.350200   4.243585   # C_R
 89 1 8   0.000000   6.532563  10.350200   5.537581   # C_R
 90 1 8   0.000000   5.537574  10.350200   6.533592   # C_R
 91 1 5   0.000000   5.769587  10.350200   7.649589   # H_
 92 1 5   0.000000   7.648566  10.350200   5.769568   # H_
 93 1 10   0.000000   8.377540  10.350200   3.528560   # O_1
 94 1 6   0.000000   7.170536  10.350200   3.179573   # C_2
 95 1 10   0.000000   6.821523  10.350200   1.972577   # O_1
 96 2 5   0.000000   1.896341  10.436481   5.229584   # H_
 97 2 7   0.000000   2.206978  11.795850   3.678080   # C_3
 98 2 5   0.000000   2.947663  11.986609   2.893397   # H_
 99 2 7   0.000000   2.127672  12.992636   4.635890   # C_3
 100 2 7   0.000000   0.808398  11.703742   3.033854   # C_3
 101 2 7   0.000000  20.684448  12.842252   3.625863   # C_3
 102 2 5   0.000000  19.629125  12.576003   3.735507   # H_
 103 2 5   0.000000   0.043469  13.722361   2.974351   # H_
 104 2 7   0.000000   0.648210  13.135506   4.957771   # C_3
 105 2 5   0.000000   2.467854  13.894913   4.111658   # H_
 106 2 5   0.000000   2.733890  12.893720   5.539853   # H_
 107 2 5   0.000000   0.342492  12.397827   5.707967   # H_
 108 2 5   0.000000   0.399927  14.131695   5.334675   # H_
 109 2 5   0.000000   0.325087  10.741648   3.243408   # H_
 110 2 5   0.000000   0.867583  11.801583   1.944162   # H_
 111 1 6   0.000000  13.529781   0.000000   7.170619   # C_2
 112 1 10   0.000000  13.878795   0.000000   8.377615   # O_1
 113 1 10   0.000000  12.322777  20.700400   6.821632   # O_1
 114 1 8   0.000000  14.593769   0.000000   6.106606   # C_R
 115 1 8   0.000000  14.166755  20.700400   4.812611   # C_R
 116 2 9   0.000000  12.831647   0.185423   4.371413   # N_3
 117 1 5   0.000000  14.930731  20.700400   2.701603   # H_
 118 1 8   0.000000  15.162743  20.700400   3.817600   # C_R
 119 1 8   0.000000  16.456748   0.000000   4.243585   # C_R
 120 1 8   0.000000  16.882763   0.000000   5.537581   # C_R
 121 1 8   0.000000  15.887774   0.000000   6.533592   # C_R
 122 1 5   0.000000  16.119787   0.000000   7.649589   # H_
 123 1 5   0.000000  17.998766   0.000000   5.769568   # H_
 124 1 10   0.000000  18.727740   0.000000   3.528560   # O_1
 125 1 6   0.000000  17.520736   0.000000   3.179573   # C_2
 126 1 10   0.000000  17.171723  20.700400   1.972577   # O_1
 127 2 5   0.000000  12.246541   0.086281   5.229584   # H_
 128 2 7   0.000000  12.557178   1.445650   3.678080   # C_3
 129 2 5   0.000000  13.297863   1.636409   2.893397   # H_
 130 2 7   0.000000  12.477872   2.642436   4.635890   # C_3
 131 2 7   0.000000  11.158598   1.353542   3.033854   # C_3
 132 2 7   0.000000  10.334248   2.492052   3.625863   # C_3
 133 2 5   0.000000   9.278925   2.225803   3.735507   # H_
 134 2 5   0.000000  10.393669   3.372161   2.974351   # H_
 135 2 7   0.000000  10.998410   2.785306   4.957771   # C_3
 136 2 5   0.000000  12.818054   3.544713   4.111658   # H_
 137 2 5   0.000000  13.084090   2.543520   5.539853   # H_
 138 2 5   0.000000  10.692692   2.047627   5.707967   # H_
 139 2 5   0.000000  10.750127   3.781495   5.334675   # H_
 140 2 5   0.000000  10.675287   0.391448   3.243408   # H_
 141 2 5   0.000000  11.217783   1.451383   1.944162   # H_
 142 1 6   0.000000  13.529781  10.350200  17.520819   # C_2
 143 1 10   0.000000  13.878795  10.350200  18.727815   # O_1
 144 1 10   0.000000  12.322777  10.350200  17.171832   # O_1
 145 1 8   0.000000  14.593769  10.350200  16.456806   # C_R
 146 1 8   0.000000  14.166755  10.350200  15.162811   # C_R
 147 2 9   0.000000  12.831647  10.535623  14.721613   # N_3
 148 1 5   0.000000  14.930731  10.350200  13.051803   # H_
 149 1 8   0.000000  15.162743  10.350200  14.167800   # C_R
 150 1 8   0.000000  16.456748  10.350200  14.593785   # C_R
 151 1 8   0.000000  16.882763  10.350200  15.887781   # C_R
 152 1 8   0.000000  15.887774  10.350200  16.883792   # C_R
 153 1 5   0.000000  16.119787  10.350200  17.999789   # H_
 154 1 5   0.000000  17.998766  10.350200  16.119768   # H_
 155 1 10   0.000000  18.727740  10.350200  13.878760   # O_1
 156 1 6   0.000000  17.520736  10.350200  13.529773   # C_2
 157 1 10   0.000000  17.171723  10.350200  12.322777   # O_1
 158 2 5   0.000000  12.246541  10.436481  15.579784   # H_
 159 2 7   0.000000  12.557178  11.795850  14.028280   # C_3
 160 2 5   0.000000  13.297863  11.986609  13.243597   # H_
 161 2 7   0.000000  12.477872  12.992636  14.986090   # C_3
 162 2 7   0.000000  11.158598  11.703742  13.384054   # C_3
 163 2 7   0.000000  10.334248  12.842252  13.976063   # C_3
 164 2 5   0.000000   9.278925  12.576003  14.085707   # H_
 165 2 5   0.000000  10.393669  13.722361  13.324551   # H_
 166 2 7   0.000000  10.998410  13.135506  15.307971   # C_3
 167 2 5   0.000000  12.818054  13.894913  14.461858   # H_
 168 2 5   0.000000  13.084090  12.893720  15.890053   # H_
 169 2 5   0.000000  10.692692  12.397827  16.058167   # H_
 170 2 5   0.000000  10.750127  14.131695  15.684875   # H_
 171 2 5   0.000000  10.675287  10.741648  13.593608   # H_
 172 2 5   0.000000  11.217783  11.801583  12.294362   # H_
 173 1 6   0.000000  17.520819   0.000000  17.520819   # C_2
 174 1 10   0.000000  17.171805   0.000000  18.727815   # O_1
 175 1 10   0.000000  18.727823   0.000000  17.171832   # O_1
 176 1 8   0.000000  16.456831   0.000000  16.456806   # C_R
 177 1 8   0.000000  16.883845   0.000000  15.162811   # C_R
 178 2 9   0.000000  18.218953  20.514977  14.721613   # N_3
 179 1 5   0.000000  16.119869   0.000000  13.051803   # H_
 180 1 8   0.000000  15.887857   0.000000  14.167800   # C_R
 181 1 8   0.000000  14.593852   0.000000  14.593785   # C_R
 182 1 8   0.000000  14.167837   0.000000  15.887781   # C_R
 183 1 8   0.000000  15.162826   0.000000  16.883792   # C_R
 184 1 5   0.000000  14.930813   0.000000  17.999789   # H_
 185 1 5   0.000000  13.051834   0.000000  16.119768   # H_
 186 1 10   0.000000  12.322860   0.000000  13.878760   # O_1
 187 1 6   0.000000  13.529864   0.000000  13.529773   # C_2
 188 1 10   0.000000  13.878877   0.000000  12.322777   # O_1
 189 2 5   0.000000  18.804059  20.614119  15.579784   # H_
 190 2 7   0.000000  18.493422  19.254750  14.028280   # C_3
 191 2 5   0.000000  17.752737  19.063991  13.243597   # H_
 192 2 7   0.000000  18.572728  18.057964  14.986090   # C_3
 193 2 7   0.000000  19.892002  19.346858  13.384054   # C_3
 194 2 7   0.000000   0.015952  18.208348  13.976063   # C_3
 195 2 5   0.000000   1.071275  18.474597  14.085707   # H_
 196 2 5   0.000000  20.656931  17.328239  13.324551   # H_
 197 2 7   0.000000  20.052190  17.915094  15.307971   # C_3
 198 2 5   0.000000  18.232546  17.155687  14.461858   # H_
 199 2 5   0.000000  17.966510  18.156880  15.890053   # H_
 200 2 5   0.000000  20.357908  18.652773  16.058167   # H_
 201 2 5   0.000000  20.300473  16.918905  15.684875   # H_
 202 2 5   0.000000  20.375313  20.308952  13.593608   # H_
 203 2 5   0.000000  19.832817  19.249017  12.294362   # H_
 204 1 6   0.000000  17.520819  10.350200   7.170619   # C_2
 205 1 10   0.000000  17.171805  10.350200   8.377615   # O_1
 206 1 10   0.000000  18.727823  10.350200   6.821632   # O_1
 207 1 8   0.000000  16.456831  10.350200   6.106606   # C_R
 208 1 8   0.000000  16.883845  10.350200   4.812611   # C_R
 209 2 9   0.000000  18.218953  10.164777   4.371413   # N_3
 210 1 5   0.000000  16.119869  10.350200   2.701603   # H_
 211 1 8   0.000000  15.887857  10.350200   3.817600   # C_R
 212 1 8   0.000000  14.593852  10.350200   4.243585   # C_R
 213 1 8   0.000000  14.167837  10.350200   5.537581   # C_R
 214 1 8   0.000000  15.162826  10.350200   6.533592   # C_R
 215 1 5   0.000000  14.930813  10.350200   7.649589   # H_
 216 1 5   0.000000  13.051834  10.350200   5.769568   # H_
 217 1 10   0.000000  12.322860  10.350200   3.528560   # O_1
 218 1 6   0.000000  13.529864  10.350200   3.179573   # C_2
 219 1 10   0.000000  13.878877  10.350200   1.972577   # O_1
 220 2 5   0.000000  18.804059  10.263919   5.229584   # H_
 221 2 7   0.000000  18.493422   8.904550   3.678080   # C_3
 222 2 5   0.000000  17.752737   8.713791   2.893397   # H_
 223 2 7   0.000000  18.572728   7.707764   4.635891   # C_3
 224 2 7   0.000000  19.892002   8.996658   3.033854   # C_3
 225 2 7   0.000000   0.015952   7.858148   3.625863   # C_3
 226 2 5   0.000000   1.071274   8.124397   3.735507   # H_
 227 2 5   0.000000  20.656931   6.978039   2.974351   # H_
 228 2 7   0.000000  20.052190   7.564894   4.957771   # C_3
 229 2 5   0.000000  18.232546   6.805487   4.111658   # H_
 230 2 5   0.000000  17.966510   7.806680   5.539853   # H_
 231 2 5   0.000000  20.357908   8.302573   5.707967   # H_
 232 2 5   0.000000  20.300473   6.568705   5.334675   # H_
 233 2 5   0.000000  20.375313   9.958752   3.243408   # H_
 234 2 5   0.000000  19.832817   8.898817   1.944162   # H_
 235 1 6   0.000000   7.170619   0.000000   7.170619   # C_2
 236 1 10   0.000000   6.821605   0.000000   8.377615   # O_1
 237 1 10   0.000000   8.377623   0.000000   6.821632   # O_1
 238 1 8   0.000000   6.106631   0.000000   6.106606   # C_R
 239 1 8   0.000000   6.533645   0.000000   4.812611   # C_R
 240 2 9   0.000000   7.868753  20.514977   4.371413   # N_3
 241 1 5   0.000000   5.769669   0.000000   2.701603   # H_
 242 1 8   0.000000   5.537657   0.000000   3.817600   # C_R
 243 1 8   0.000000   4.243652   0.000000   4.243585   # C_R
 244 1 8   0.000000   3.817637   0.000000   5.537581   # C_R
 245 1 8   0.000000   4.812626   0.000000   6.533592   # C_R
 246 1 5   0.000000   4.580613   0.000000   7.649589   # H_
 247 1 5   0.000000   2.701634   0.000000   5.769568   # H_
 248 1 10   0.000000   1.972660   0.000000   3.528560   # O_1
 249 1 6   0.000000   3.179664   0.000000   3.179573   # C_2
 250 1 10   0.000000   3.528677   0.000000   1.972577   # O_1
 251 2 5   0.000000   8.453859  20.614119   5.229584   # H_
 252 2 7   0.000000   8.143222  19.254750   3.678080   # C_3
 253 2 5   0.000000   7.402537  19.063991   2.893397   # H_
 254 2 7   0.000000   8.222528  18.057964   4.635890   # C_3
 255 2 7   0.000000   9.541802  19.346858   3.033854   # C_3
 256 2 7   0.000000  10.366152  18.208348   3.625863   # C_3
 257 2 5   0.000000  11.421475  18.474597   3.735507   # H_
 258 2 5   0.000000  10.306731  17.328239   2.974351   # H_
 259 2 7   0.000000   9.701990  17.915094   4.957771   # C_3
 260 2 5   0.000000   7.882346  17.155687   4.111658   # H_
 261 2 5   0.000000   7.616310  18.156880   5.539853   # H_
 262 2 5   0.000000  10.007708  18.652773   5.707967   # H_
 263 2 5   0.000000   9.950273  16.918905   5.334675   # H_
 264 2 5   0.000000  10.025113  20.308952   3.243408   # H_
 265 2 5   0.000000   9.482617  19.249017   1.944162   # H_
 266 1 6   0.000000   7.170619  10.350200  17.520819   # C_2
 267 1 10   0.000000   6.821605  10.350200  18.727815   # O_1
 268 1 10   0.000000   8.377623  10.350200  17.171832   # O_1
 269 1 8   0.000000   6.106631  10.350200  16.456806   # C_R
 270 1 8   0.000000   6.533645  10.350200  15.162811   # C_R
 271 2 9   0.000000   7.868753  10.164777  14.721613   # N_3
 272 1 5   0.000000   5.769669  10.350200  13.051803   # H_
 273 1 8   0.000000   5.537657  10.350200  14.167800   # C_R
 274 1 8   0.000000   4.243652  10.350200  14.593785   # C_R
 275 1 8   0.000000   3.817637  10.350200  15.887781   # C_R
 276 1 8   0.000000   4.812626  10.350200  16.883792   # C_R
 277 1 5   0.000000   4.580613  10.350200  17.999789   # H_
 278 1 5   0.000000   2.701634  10.350200  16.119768   # H_
 279 1 10   0.000000   1.972660  10.350200  13.878760   # O_1
 280 1 6   0.000000   3.179664  10.350200  13.529773   # C_2
 281 1 10   0.000000   3.528677  10.350200  12.322777   # O_1
 282 2 5   0.000000   8.453859  10.263919  15.579784   # H_
 283 2 7   0.000000   8.143222   8.904550  14.028280   # C_3
 284 2 5   0.000000   7.402537   8.713791  13.243597   # H_
 285 2 7   0.000000   8.222528   7.707764  14.986090   # C_3
 286 2 7   0.000000   9.541802   8.996658  13.384054   # C_3
 287 2 7   0.000000  10.366152   7.858148  13.976063   # C_3
 288 2 5   0.000000  11.421475   8.124397  14.085707   # H_
 289 2 5   0.000000  10.306731   6.978039  13.324551   # H_
 290 2 7   0.000000   9.701990   7.564894  15.307971   # C_3
 291 2 5   0.000000   7.882346   6.805487  14.461858   # H_
 292 2 5   0.000000   7.616310   7.806680  15.890053   # H_
 293 2 5   0.000000  10.007708   8.302573  16.058167   # H_
 294 2 5   0.000000   9.950273   6.568705  15.684875   # H_
 295 2 5   0.000000  10.025113   9.958752  13.593608   # H_
 296 2 5   0.000000   9.482617   8.898817  12.294362   # H_
 297 1 6   0.000000  17.520819   3.179581   0.000000   # C_2
 298 1 10   0.000000  18.727815   3.528595  20.700400   # O_1
 299 1 10   0.000000  17.171832   1.972577   0.000000   # O_1
 300 1 8   0.000000  16.456806   4.243569  20.700400   # C_R
 301 1 8   0.000000  15.162811   3.816555   0.000000   # C_R
 302 2 9   0.000000  14.721613   2.481447   0.185423   # N_3
 303 1 5   0.000000  13.051803   4.580531   0.000000   # H_
 304 1 8   0.000000  14.167800   4.812543   0.000000   # C_R
 305 1 8   0.000000  14.593785   6.106548  20.700400   # C_R
 306 1 8   0.000000  15.887781   6.532563  20.700400   # C_R
 307 1 8   0.000000  16.883792   5.537574  20.700400   # C_R
 308 1 5   0.000000  17.999789   5.769587  20.700400   # H_
 309 1 5   0.000000  16.119768   7.648566  20.700400   # H_
 310 1 10   0.000000  13.878760   8.377540  20.700400   # O_1
 311 1 6   0.000000  13.529773   7.170536  20.700400   # C_2
 312 1 10   0.000000  12.322777   6.821523   0.000000   # O_1
 313 2 5   0.000000  15.579784   1.896341   0.086281   # H_
 314 2 7   0.000000  14.028280   2.206978   1.445650   # C_3
 315 2 5   0.000000  13.243597   2.947663   1.636409   # H_
 316 2 7   0.000000  14.986090   2.127672   2.642436   # C_3
 317 2 7   0.000000  13.384054   0.808398   1.353542   # C_3
 318 2 7   0.000000  13.976063  20.684448   2.492052   # C_3
 319 2 5   0.000000  14.085707  19.629125   2.225803   # H_
 320 2 5   0.000000  13.324551   0.043469   3.372161   # H_
 321 2 7   0.000000  15.307971   0.648210   2.785306   # C_3
 322 2 5   0.000000  14.461858   2.467854   3.544713   # H_
 323 2 5   0.000000  15.890053   2.733890   2.543520   # H_
 324 2 5   0.000000  16.058167   0.342492   2.047627   # H_
 325 2 5   0.000000  15.684875   0.399927   3.781495   # H_
 326 2 5   0.000000  13.593608   0.325087   0.391448   # H_
 327 2 5   0.000000  12.294362   0.867583   1.451383   # H_
 328 1 6   0.000000  17.520819  13.529781  10.350200   # C_2
 329 1 10   0.000000  18.727815  13.878795  10.350200   # O_1
 330 1 10   0.000000  17.171832  12.322777  10.350200   # O_1
 331 1 8   0.000000  16.456806  14.593769  10.350200   # C_R
 332 1 8   0.000000  15.162811  14.166755  10.350200   # C_R
 333 2 9   0.000000  14.721613  12.831647  10.535623   # N_3
 334 1 5   0.000000  13.051803  14.930731  10.350200   # H_
 335 1 8   0.000000  14.167800  15.162743  10.350200   # C_R
 336 1 8   0.000000  14.593785  16.456748  10.350200   # C_R
 337 1 8   0.000000  15.887781  16.882763  10.350200   # C_R
 338 1 8   0.000000  16.883792  15.887774  10.350200   # C_R
 339 1 5   0.000000  17.999789  16.119787  10.350200   # H_
 340 1 5   0.000000  16.119768  17.998766  10.350200   # H_
 341 1 10   0.000000  13.878760  18.727740  10.350200   # O_1
 342 1 6   0.000000  13.529773  17.520736  10.350200   # C_2
 343 1 10   0.000000  12.322777  17.171723  10.350200   # O_1
 344 2 5   0.000000  15.579784  12.246541  10.436481   # H_
 345 2 7   0.000000  14.028280  12.557178  11.795850   # C_3
 346 2 5   0.000000  13.243597  13.297863  11.986609   # H_
 347 2 7   0.000000  14.986090  12.477872  12.992636   # C_3
 348 2 7   0.000000  13.384054  11.158598  11.703742   # C_3
 349 2 7   0.000000  13.976063  10.334248  12.842252   # C_3
 350 2 5   0.000000  14.085707   9.278925  12.576003   # H_
 351 2 5   0.000000  13.324551  10.393669  13.722361   # H_
 352 2 7   0.000000  15.307971  10.998410  13.135506   # C_3
 353 2 5   0.000000  14.461858  12.818054  13.894913   # H_
 354 2 5   0.000000  15.890053  13.084090  12.893720   # H_
 355 2 5   0.000000  16.058167  10.692692  12.397827   # H_
 356 2 5   0.000000  15.684875  10.750127  14.131695   # H_
 357 2 5   0.000000  13.593608  10.675287  10.741648   # H_
 358 2 5   0.000000  12.294362  11.217783  11.801583   # H_
 359 1 6   0.000000   7.170619   3.179581  10.350200   # C_2
 360 1 10   0.000000   8.377615   3.528595  10.350200   # O_1
 361 1 10   0.000000   6.821632   1.972577  10.350200   # O_1
 362 1 8   0.000000   6.106606   4.243569  10.350200   # C_R
 363 1 8   0.000000   4.812611   3.816555  10.350200   # C_R
 364 2 9   0.000000   4.371413   2.481447  10.535623   # N_3
 365 1 5   0.000000   2.701603   4.580531  10.350200   # H_
 366 1 8   0.000000   3.817600   4.812543  10.350200   # C_R
 367 1 8   0.000000   4.243585   6.106548  10.350200   # C_R
 368 1 8   0.000000   5.537581   6.532563  10.350200   # C_R
 369 1 8   0.000000   6.533592   5.537574  10.350200   # C_R
 370 1 5   0.000000   7.649589   5.769587  10.350200   # H_
 371 1 5   0.000000   5.769568   7.648566  10.350200   # H_
 372 1 10   0.000000   3.528560   8.377540  10.350200   # O_1
 373 1 6   0.000000   3.179573   7.170536  10.350200   # C_2
 374 1 10   0.000000   1.972577   6.821523  10.350200   # O_1
 375 2 5   0.000000   5.229584   1.896341  10.436481   # H_
 376 2 7   0.000000   3.678080   2.206978  11.795850   # C_3
 377 2 5   0.000000   2.893397   2.947663  11.986609   # H_
 378 2 7   0.000000   4.635890   2.127672  12.992636   # C_3
 379 2 7   0.000000   3.033854   0.808398  11.703742   # C_3
 380 2 7   0.000000   3.625863  20.684448  12.842252   # C_3
 381 2 5   0.000000   3.735507  19.629125  12.576003   # H_
 382 2 5   0.000000   2.974351   0.043469  13.722361   # H_
 383 2 7   0.000000   4.957771   0.648210  13.135506   # C_3
 384 2 5   0.000000   4.111658   2.467854  13.894913   # H_
 385 2 5   0.000000   5.539853   2.733890  12.893720   # H_
 386 2 5   0.000000   5.707967   0.342492  12.397827   # H_
 387 2 5   0.000000   5.334675   0.399927  14.131695   # H_
 388 2 5   0.000000   3.243408   0.325087  10.741648   # H_
 389 2 5   0.000000   1.944162   0.867583  11.801583   # H_
 390 1 6   0.000000   7.170619  13.529781   0.000000   # C_2
 391 1 10   0.000000   8.377615  13.878795   0.000000   # O_1
 392 1 10   0.000000   6.821632  12.322777  20.700400   # O_1
 393 1 8   0.000000   6.106606  14.593769   0.000000   # C_R
 394 1 8   0.000000   4.812611  14.166755   0.000000   # C_R
 395 2 9   0.000000   4.371413  12.831647   0.185423   # N_3
 396 1 5   0.000000   2.701603  14.930731   0.000000   # H_
 397 1 8   0.000000   3.817600  15.162743   0.000000   # C_R
 398 1 8   0.000000   4.243585  16.456748   0.000000   # C_R
 399 1 8   0.000000   5.537581  16.882763   0.000000   # C_R
 400 1 8   0.000000   6.533592  15.887774   0.000000   # C_R
 401 1 5   0.000000   7.649589  16.119787   0.000000   # H_
 402 1 5   0.000000   5.769568  17.998766   0.000000   # H_
 403 1 10   0.000000   3.528560  18.727740   0.000000   # O_1
 404 1 6   0.000000   3.179573  17.520736   0.000000   # C_2
 405 1 10   0.000000   1.972577  17.171723   0.000000   # O_1
 406 2 5   0.000000   5.229584  12.246541   0.086281   # H_
 407 2 7   0.000000   3.678080  12.557178   1.445650   # C_3
 408 2 5   0.000000   2.893397  13.297863   1.636409   # H_
 409 2 7   0.000000   4.635890  12.477872   2.642436   # C_3
 410 2 7   0.000000   3.033854  11.158598   1.353542   # C_3
 411 2 7   0.000000   3.625863  10.334248   2.492052   # C_3
 412 2 5   0.000000   3.735507   9.278925   2.225803   # H_
 413 2 5   0.000000   2.974351  10.393669   3.372161   # H_
 414 2 7   0.000000   4.957771  10.998410   2.785306   # C_3
 415 2 5   0.000000   4.111658  12.818054   3.544713   # H_
 416 2 5   0.000000   5.539853  13.084090   2.543520   # H_
 417 2 5   0.000000   5.707967  10.692692   2.047627   # H_
 418 2 5   0.000000   5.334675  10.750127   3.781495   # H_
 419 2 5   0.000000   3.243408  10.675287   0.391448   # H_
 420 2 5   0.000000   1.944162  11.217783   1.451383   # H_
 421 1 6   0.000000  17.520819  17.520819   0.000000   # C_2
 422 1 10   0.000000  18.727815  17.171805  20.700400   # O_1
 423 1 10   0.000000  17.171832  18.727823   0.000000   # O_1
 424 1 8   0.000000  16.456806  16.456831   0.000000   # C_R
 425 1 8   0.000000  15.162811  16.883845   0.000000   # C_R
 426 2 9   0.000000  14.721613  18.218953  20.514977   # N_3
 427 1 5   0.000000  13.051803  16.119869   0.000000   # H_
 428 1 8   0.000000  14.167800  15.887857   0.000000   # C_R
 429 1 8   0.000000  14.593785  14.593852   0.000000   # C_R
 430 1 8   0.000000  15.887781  14.167837  20.700400   # C_R
 431 1 8   0.000000  16.883792  15.162826  20.700400   # C_R
 432 1 5   0.000000  17.999789  14.930813  20.700400   # H_
 433 1 5   0.000000  16.119768  13.051834  20.700400   # H_
 434 1 10   0.000000  13.878760  12.322860  20.700400   # O_1
 435 1 6   0.000000  13.529773  13.529864   0.000000   # C_2
 436 1 10   0.000000  12.322777  13.878877   0.000000   # O_1
 437 2 5   0.000000  15.579784  18.804059  20.614119   # H_
 438 2 7   0.000000  14.028280  18.493422  19.254750   # C_3
 439 2 5   0.000000  13.243597  17.752737  19.063991   # H_
 440 2 7   0.000000  14.986090  18.572728  18.057964   # C_3
 441 2 7   0.000000  13.384054  19.892002  19.346858   # C_3
 442 2 7   0.000000  13.976063   0.015952  18.208348   # C_3
 443 2 5   0.000000  14.085707   1.071275  18.474597   # H_
 444 2 5   0.000000  13.324551  20.656931  17.328239   # H_
 445 2 7   0.000000  15.307971  20.052190  17.915094   # C_3
 446 2 5   0.000000  14.461858  18.232546  17.155687   # H_
 447 2 5   0.000000  15.890053  17.966510  18.156880   # H_
 448 2 5   0.000000  16.058167  20.357908  18.652773   # H_
 449 2 5   0.000000  15.684875  20.300473  16.918905   # H_
 450 2 5   0.000000  13.593608  20.375313  20.308952   # H_
 451 2 5   0.000000  12.294362  19.832817  19.249017   # H_
 452 1 6   0.000000  17.520819   7.170619  10.350200   # C_2
 453 1 10   0.000000  18.727815   6.821605  10.350200   # O_1
 454 1 10   0.000000  17.171832   8.377623  10.350200   # O_1
 455 1 8   0.000000  16.456806   6.106631  10.350200   # C_R
 456 1 8   0.000000  15.162811   6.533645  10.350200   # C_R
 457 2 9   0.000000  14.721613   7.868753  10.164777   # N_3