 (written by mofun)

1248 atoms
864 bonds
1680 angles
2400 dihedrals
0 impropers

10 atom types
5 bond types
9 angle types
14 dihedral types
   0.000000  20.700400 xlo xhi
   0.000000  20.700400 ylo yhi
   0.000000  20.700400 zlo zhi

Masses

 1 91.2240   # Zr3+4
 2 15.9994   # O_3
 3 12.0107   # C_3
 4 1.0079   # H_
 5 1.0079   # H_
 6 12.0107   # C_2
 7 12.0107   # C_3
 8 12.0107   # C_R
 9 14.0067   # N_3
 10 15.9994   # O_1

Pair Coeffs

 1   0.069000   2.783168 # Zr3+4
 2   0.060000   3.118146 # O_3
 3   0.105000   3.430851 # C_3
 4   0.044000   2.571134 # H_
 5 0.044000 2.571134   # H_
 6 0.105000 3.430851   # C_2
 7 0.105000 3.430851   # C_3
 8 0.105000 3.430851   # C_R
 9 0.069000 3.260689   # N_3
 10 0.060000 3.118146   # O_1

Bond Coeffs

 1 560.312976 1.423192   # C_R N_3
 2 527.945261 1.044419   # H_ N_3
 3 528.634538 1.451071   # C_3 N_3
 4 331.069389 1.109401   # C_3 H_
 5 349.795899 1.514000   # C_3 C_3

Angle Coeffs

 1 cosine/periodic  282.369526  -1  3   # C_R C_R N_3
 2 fourier  268.482172  0.317506  0.313225  0.272502   # C_3 N_3 C_R
 3 fourier  150.574599  0.317506  0.313225  0.272502   # C_R N_3 H_
 4 fourier  144.695053  0.317506  0.313225  0.272502   # C_3 N_3 H_
 5 fourier  169.780468  0.343737  0.374972  0.281246   # H_ C_3 N_3
 6 fourier  303.297032  0.343737  0.374972  0.281246   # C_3 C_3 N_3
 7 fourier  75.498766  0.343737  0.374972  0.281246   # H_ C_3 H_
 8 fourier  117.318683  0.343737  0.374972  0.281246   # C_3 C_3 H_
 9 fourier  214.211821  0.343737  0.374972  0.281246   # C_3 C_3 C_3

Dihedral Coeffs

 1 harmonic 3.368555 -1 2   # H_ C_R C_R N_3 M=4
 2 harmonic 3.368555 -1 2   # C_R C_R C_R N_3 M=4
 3 harmonic 3.368555 -1 2   # C_2 C_R C_R N_3 M=4
 4 harmonic 0.125000 -1 6   # C_3 N_3 C_R C_R M=4
 5 harmonic 0.125000 -1 6   # C_R C_R N_3 H_ M=4
 6 harmonic 0.081375 1 3   # C_R N_3 C_3 H_ M=6
 7 harmonic 0.081375 1 3   # C_3 C_3 N_3 C_R M=6
 8 harmonic 0.081375 1 3   # H_ C_3 N_3 H_ M=6
 9 harmonic 0.081375 1 3   # C_3 C_3 N_3 H_ M=6
 10 harmonic 0.117722 1 3   # H_ C_3 C_3 N_3 M=9
 11 harmonic 0.117722 1 3   # C_3 C_3 C_3 N_3 M=9
 12 harmonic 0.117722 1 3   # H_ C_3 C_3 H_ M=9
 13 harmonic 0.117722 1 3   # C_3 C_3 C_3 H_ M=9
 14 harmonic 0.117722 1 3   # C_3 C_3 C_3 C_3 M=9

Atoms

 1 1 1   0.000000   2.481771   0.000000   0.000000   # Zr3+4
 2 1 1   0.000000   2.481771  10.350200  10.350200   # Zr3+4
 3 1 1   0.000000  12.831971   0.000000  10.350200   # Zr3+4
 4 1 1   0.000000  12.831971  10.350200   0.000000   # Zr3+4
 5 1 1   0.000000  18.218629   0.000000   0.000000   # Zr3+4
 6 1 1   0.000000  18.218629  10.350200  10.350200   # Zr3+4
 7 1 1   0.000000   7.868429   0.000000  10.350200   # Zr3+4
 8 1 1   0.000000   7.868429  10.350200   0.000000   # Zr3+4
 9 1 1   0.000000   0.000000   2.481771   0.000000   # Zr3+4
 10 1 1   0.000000   0.000000  12.831971  10.350200   # Zr3+4
 11 1 1   0.000000  10.350200   2.481771  10.350200   # Zr3+4
 12 1 1   0.000000  10.350200  12.831971   0.000000   # Zr3+4
 13 1 1   0.000000   0.000000  18.218629   0.000000   # Zr3+4
 14 1 1   0.000000   0.000000   7.868429  10.350200   # Zr3+4
 15 1 1   0.000000  10.350200  18.218629  10.350200   # Zr3+4
 16 1 1   0.000000  10.350200   7.868429   0.000000   # Zr3+4
 17 1 1   0.000000   0.000000   0.000000   2.481771   # Zr3+4
 18 1 1   0.000000   0.000000  10.350200  12.831971   # Zr3+4
 19 1 1   0.000000  10.350200   0.000000  12.831971   # Zr3+4
 20 1 1   0.000000  10.350200  10.350200   2.481771   # Zr3+4
 21 1 1   0.000000   0.000000   0.000000  18.218629   # Zr3+4
 22 1 1   0.000000   0.000000  10.350200   7.868429   # Zr3+4
 23 1 1   0.000000  10.350200   0.000000   7.868429   # Zr3+4
 24 1 1   0.000000  10.350200  10.350200  18.218629   # Zr3+4
 25 1 2   0.000000   1.161292   9.188908   9.188908   # O_3
 26 1 2   0.000000  11.511492  19.539108   9.188908   # O_3
 27 1 2   0.000000  11.511492   9.188908  19.539108   # O_3
 28 1 2   0.000000   9.188908   1.161292   9.188908   # O_3
 29 1 2   0.000000   9.188908  11.511492  19.539108   # O_3
 30 1 2   0.000000  19.539108  19.539108   1.161292   # O_3
 31 1 2   0.000000  19.539108   9.188908  11.511492   # O_3
 32 1 2   0.000000   1.161292   1.161292   1.161292   # O_3
 33 1 2   0.000000  11.511492  11.511492   1.161292   # O_3
 34 1 2   0.000000  19.539108   1.161292   1.161292   # O_3
 35 1 2   0.000000  19.539108  11.511492  11.511492   # O_3
 36 1 2   0.000000   9.188908   1.161292  11.511492   # O_3
 37 1 2   0.000000   9.188908  11.511492   1.161292   # O_3
 38 1 2   0.000000   1.161292  19.539108   1.161292   # O_3
 39 1 2   0.000000   1.161292   9.188908  11.511492   # O_3
 40 1 2   0.000000  11.511492  19.539108  11.511492   # O_3
 41 1 2   0.000000  11.511492   9.188908   1.161292   # O_3
 42 1 2   0.000000  19.539108  19.539108  19.539108   # O_3
 43 1 2   0.000000  19.539108   9.188908   9.188908   # O_3
 44 1 2   0.000000   9.188908  19.539108   9.188908   # O_3
 45 1 2   0.000000   9.188908   9.188908  19.539108   # O_3
 46 1 2   0.000000   1.161292   1.161292  19.539108   # O_3
 47 1 2   0.000000   1.161292  11.511492   9.188908   # O_3
 48 1 2   0.000000  11.511492   1.161292   9.188908   # O_3
 49 1 6   0.000000   3.179581   0.000000  17.520819   # C_2
 50 1 10   0.000000   3.528595   0.000000  18.727815   # O_1
 51 1 10   0.000000   1.972577  20.700400  17.171832   # O_1
 52 1 8   0.000000   4.243569   0.000000  16.456806   # C_R
 53 1 8   0.000000   3.816555  20.700400  15.162811   # C_R
 54 2 9   0.000000   2.467702   0.032944  14.731832   # N_3
 55 1 5   0.000000   4.580531  20.700400  13.051803   # H_
 56 1 8   0.000000   4.812543  20.700400  14.167800   # C_R
 57 1 8   0.000000   6.106548   0.000000  14.593785   # C_R
 58 1 8   0.000000   6.532563   0.000000  15.887781   # C_R
 59 1 8   0.000000   5.537574   0.000000  16.883792   # C_R
 60 1 5   0.000000   5.769587   0.000000  17.999789   # H_
 61 2 9   0.000000   7.881195  20.629063  16.310981   # N_3
 62 1 10   0.000000   8.377540   0.000000  13.878760   # O_1
 63 1 6   0.000000   7.170536   0.000000  13.529773   # C_2
 64 1 10   0.000000   6.821523  20.700400  12.322777   # O_1
 65 2 5   0.000000   1.898326   0.057454  15.605822   # H_
 66 2 7   0.000000   2.044251  19.629381  13.873003   # C_3
 67 2 5   0.000000   2.700508  19.514304  13.003351   # H_
 68 2 5   0.000000   1.066334  19.903840  13.467999   # H_
 69 2 7   0.000000   1.932886  18.308025  14.642223   # C_3
 70 2 5   0.000000   2.919122  18.060646  15.054972   # H_
 71 2 7   0.000000   1.491619  17.134194  13.760374   # C_3
 72 2 5   0.000000   1.260623  18.416930  15.501523   # H_
 73 2 5   0.000000   1.843471  17.268683  12.730642   # H_
 74 2 7   0.000000  20.687793  16.848198  13.770187   # C_3
 75 2 5   0.000000   1.988372  16.230285  14.136659   # H_
 76 2 7   0.000000   8.333225   0.940317  17.259657   # C_3
 77 2 5   0.000000   8.451526  20.651053  15.437769   # H_
 78 2 5   0.000000   7.764073   0.888012  18.192719   # H_
 79 2 7   0.000000   8.304382   2.350925  16.665159   # C_3
 80 2 5   0.000000   9.367463   0.692107  17.526892   # H_
 81 2 5   0.000000   7.275821   2.647857  16.430683   # H_
 82 2 5   0.000000   8.842909   2.351353  15.708741   # H_
 83 2 7   0.000000   8.948462   3.403250  17.573590   # C_3
 84 2 7   0.000000   8.322270   3.554177  18.962449   # C_3
 85 2 5   0.000000   8.909451   4.372268  17.060421   # H_
 86 2 5   0.000000  10.012017   3.163760  17.696986   # H_
 87 2 7   0.000000  19.830777  17.952319  13.176895   # C_3
 88 2 5   0.000000  20.355764  16.643287  14.794800   # H_
 89 2 5   0.000000  20.512645  15.929876  13.196353   # H_
 90 2 7   0.000000   6.844754   3.912230  18.930144   # C_3
 91 2 5   0.000000   8.861346   4.344931  19.498297   # H_
 92 2 5   0.000000   8.463461   2.637707  19.545804   # H_
 93 2 5   0.000000  19.816574  18.834261  13.823270   # H_
 94 2 5   0.000000  18.796386  17.608769  13.072576   # H_
 95 2 5   0.000000  20.191177  18.244907  12.185851   # H_
 96 2 5   0.000000   6.671556   4.812750  18.332731   # H_
 97 2 5   0.000000   6.483022   4.104283  19.945438   # H_
 98 2 5   0.000000   6.243515   3.098462  18.513999   # H_
 99 1 6   0.000000   3.179581  10.350200   7.170619   # C_2
 100 1 10   0.000000   3.528595  10.350200   8.377615   # O_1
 101 1 10   0.000000   1.972577  10.350200   6.821632   # O_1
 102 1 8   0.000000   4.243569  10.350200   6.106606   # C_R
 103 1 8   0.000000   3.816555  10.350200   4.812611   # C_R
 104 2 9   0.000000   2.467702  10.383144   4.381632   # N_3
 105 1 5   0.000000   4.580531  10.350200   2.701603   # H_
 106 1 8   0.000000   4.812543  10.350200   3.817600   # C_R
 107 1 8   0.000000   6.106548  10.350200   4.243585   # C_R
 108 1 8   0.000000   6.532563  10.350200   5.537581   # C_R
 109 1 8   0.000000   5.537574  10.350200   6.533592   # C_R
 110 1 5   0.000000   5.769587  10.350200   7.649589   # H_
 111 2 9   0.000000   7.881195  10.278863   5.960781   # N_3
 112 1 10   0.000000   8.377540  10.350200   3.528560   # O_1
 113 1 6   0.000000   7.170536  10.350200   3.179573   # C_2
 114 1 10   0.000000   6.821523  10.350200   1.972577   # O_1
 115 2 5   0.000000   1.898326  10.407654   5.255622   # H_
 116 2 7   0.000000   2.044251   9.279181   3.522803   # C_3
 117 2 5   0.000000   2.700508   9.164104   2.653151   # H_
 118 2 5   0.000000   1.066334   9.553640   3.117799   # H_
 119 2 7   0.000000   1.932886   7.957825   4.292023   # C_3
 120 2 5   0.000000   2.919122   7.710446   4.704772   # H_
 121 2 7   0.000000   1.491619   6.783994   3.410174   # C_3
 122 2 5   0.000000   1.260623   8.066730   5.151323   # H_
 123 2 5   0.000000   1.843471   6.918483   2.380442   # H_
 124 2 7   0.000000  20.687793   6.497998   3.419987   # C_3
 125 2 5   0.000000   1.988372   5.880085   3.786459   # H_
 126 2 7   0.000000   8.333225  11.290517   6.909457   # C_3
 127 2 5   0.000000   8.451526  10.300853   5.087569   # H_
 128 2 5   0.000000   7.764073  11.238212   7.842519   # H_
 129 2 7   0.000000   8.304382  12.701125   6.314959   # C_3
 130 2 5   0.000000   9.367463  11.042307   7.176692   # H_
 131 2 5   0.000000   7.275821  12.998057   6.080483   # H_
 132 2 5   0.000000   8.842909  12.701553   5.358541   # H_
 133 2 7   0.000000   8.948462  13.753450   7.223390   # C_3
 134 2 7   0.000000   8.322270  13.904377   8.612249   # C_3
 135 2 5   0.000000   8.909451  14.722468   6.710221   # H_
 136 2 5   0.000000  10.012017  13.513960   7.346786   # H_
 137 2 7   0.000000  19.830777   7.602119   2.826695   # C_3
 138 2 5   0.000000  20.355764   6.293087   4.444600   # H_
 139 2 5   0.000000  20.512645   5.579676   2.846153   # H_
 140 2 7   0.000000   6.844754  14.262430   8.579944   # C_3
 141 2 5   0.000000   8.861346  14.695131   9.148097   # H_
 142 2 5   0.000000   8.463461  12.987907   9.195604   # H_
 143 2 5   0.000000  19.816574   8.484061   3.473070   # H_
 144 2 5   0.000000  18.796386   7.258569   2.722376   # H_
 145 2 5   0.000000  20.191177   7.894707   1.835651   # H_
 146 2 5   0.000000   6.671556  15.162950   7.982531   # H_
 147 2 5   0.000000   6.483022  14.454483   9.595238   # H_
 148 2 5   0.000000   6.243515  13.448662   8.163799   # H_
 149 1 6   0.000000  13.529781   0.000000   7.170619   # C_2
 150 1 10   0.000000  13.878795   0.000000   8.377615   # O_1
 151 1 10   0.000000  12.322777  20.700400   6.821632   # O_1
 152 1 8   0.000000  14.593769   0.000000   6.106606   # C_R
 153 1 8   0.000000  14.166755  20.700400   4.812611   # C_R
 154 2 9   0.000000  12.817902   0.032944   4.381632   # N_3
 155 1 5   0.000000  14.930731  20.700400   2.701603   # H_
 156 1 8   0.000000  15.162743  20.700400   3.817600   # C_R
 157 1 8   0.000000  16.456748   0.000000   4.243585   # C_R
 158 1 8   0.000000  16.882763   0.000000   5.537581   # C_R
 159 1 8   0.000000  15.887774   0.000000   6.533592   # C_R
 160 1 5   0.000000  16.119787   0.000000   7.649589   # H_
 161 2 9   0.000000  18.231395  20.629063   5.960781   # N_3
 162 1 10   0.000000  18.727740   0.000000   3.528560   # O_1
 163 1 6   0.000000  17.520736   0.000000   3.179573   # C_2
 164 1 10   0.000000  17.171723  20.700400   1.972577   # O_1
 165 2 5   0.000000  12.248526   0.057454   5.255622   # H_
 166 2 7   0.000000  12.394451  19.629381   3.522803   # C_3
 167 2 5   0.000000  13.050708  19.514304   2.653151   # H_
 168 2 5   0.000000  11.416535  19.903840   3.117799   # H_
 169 2 7   0.000000  12.283086  18.308025   4.292023   # C_3
 170 2 5   0.000000  13.269323  18.060646   4.704772   # H_
 171 2 7   0.000000  11.841819  17.134194   3.410174   # C_3
 172 2 5   0.000000  11.610823  18.416930   5.151323   # H_
 173 2 5   0.000000  12.193671  17.268683   2.380442   # H_
 174 2 7   0.000000  10.337593  16.848198   3.419987   # C_3
 175 2 5   0.000000  12.338572  16.230285   3.786459   # H_
 176 2 7   0.000000  18.683425   0.940317   6.909457   # C_3
 177 2 5   0.000000  18.801726  20.651053   5.087569   # H_
 178 2 5   0.000000  18.114273   0.888012   7.842519   # H_
 179 2 7   0.000000  18.654582   2.350925   6.314959   # C_3
 180 2 5   0.000000  19.717663   0.692107   7.176692   # H_
 181 2 5   0.000000  17.626021   2.647857   6.080483   # H_
 182 2 5   0.000000  19.193109   2.351353   5.358541   # H_
 183 2 7   0.000000  19.298662   3.403250   7.223390   # C_3
 184 2 7   0.000000  18.672470   3.554177   8.612249   # C_3
 185 2 5   0.000000  19.259651   4.372268   6.710221   # H_
 186 2 5   0.000000  20.362217   3.163760   7.346786   # H_
 187 2 7   0.000000   9.480577  17.952319   2.826695   # C_3
 188 2 5   0.000000  10.005564  16.643287   4.444600   # H_
 189 2 5   0.000000  10.162445  15.929876   2.846153   # H_
 190 2 7   0.000000  17.194954   3.912230   8.579944   # C_3
 191 2 5   0.000000  19.211546   4.344931   9.148097   # H_
 192 2 5   0.000000  18.813661   2.637707   9.195604   # H_
 193 2 5   0.000000   9.466374  18.834261   3.473070   # H_
 194 2 5   0.000000   8.446186  17.608769   2.722376   # H_
 195 2 5   0.000000   9.840977  18.244907   1.835651   # H_
 196 2 5   0.000000  17.021756   4.812750   7.982531   # H_
 197 2 5   0.000000  16.833222   4.104283   9.595238   # H_
 198 2 5   0.000000  16.593715   3.098462   8.163799   # H_
 199 1 6   0.000000  13.529781  10.350200  17.520819   # C_2
 200 1 10   0.000000  13.878795  10.350200  18.727815   # O_1
 201 1 10   0.000000  12.322777  10.350200  17.171832   # O_1
 202 1 8   0.000000  14.593769  10.350200  16.456806   # C_R
 203 1 8   0.000000  14.166755  10.350200  15.162811   # C_R
 204 2 9   0.000000  12.817902  10.383144  14.731832   # N_3
 205 1 5   0.000000  14.930731  10.350200  13.051803   # H_
 206 1 8   0.000000  15.162743  10.350200  14.167800   # C_R
 207 1 8   0.000000  16.456748  10.350200  14.593785   # C_R
 208 1 8   0.000000  16.882763  10.350200  15.887781   # C_R
 209 1 8   0.000000  15.887774  10.350200  16.883792   # C_R
 210 1 5   0.000000  16.119787  10.350200  17.999789   # H_
 211 2 9   0.000000  18.231395  10.278863  16.310981   # N_3
 212 1 10   0.000000  18.727740  10.350200  13.878760   # O_1
 213 1 6   0.000000  17.520736  10.350200  13.529773   # C_2
 214 1 10   0.000000  17.171723  10.350200  12.322777   # O_1
 215 2 5   0.000000  12.248526  10.407654  15.605822   # H_
 216 2 7   0.000000  12.394451   9.279181  13.873003   # C_3
 217 2 5   0.000000  13.050708   9.164104  13.003351   # H_
 218 2 5   0.000000  11.416534   9.553640  13.467999   # H_
 219 2 7   0.000000  12.283086   7.957825  14.642223   # C_3
 220 2 5   0.000000  13.269322   7.710446  15.054972   # H_
 221 2 7   0.000000  11.841819   6.783994  13.760374   # C_3
 222 2 5   0.000000  11.610823   8.066730  15.501523   # H_
 223 2 5   0.000000  12.193671   6.918483  12.730642   # H_
 224 2 7   0.000000  10.337593   6.497998  13.770187   # C_3
 225 2 5   0.000000  12.338572   5.880085  14.136659   # H_
 226 2 7   0.000000  18.683425  11.290517  17.259657   # C_3
 227 2 5   0.000000  18.801726  10.300853  15.437769   # H_
 228 2 5   0.000000  18.114273  11.238212  18.192719   # H_
 229 2 7   0.000000  18.654582  12.701125  16.665159   # C_3
 230 2 5   0.000000  19.717663  11.042307  17.526892   # H_
 231 2 5   0.000000  17.626021  12.998057  16.430683   # H_
 232 2 5   0.000000  19.193109  12.701553  15.708741   # H_
 233 2 7   0.000000  19.298662  13.753450  17.573590   # C_3
 234 2 7   0.000000  18.672470  13.904377  18.962449   # C_3
 235 2 5   0.000000  19.259651  14.722468  17.060421   # H_
 236 2 5   0.000000  20.362217  13.513960  17.696986   # H_
 237 2 7   0.000000   9.480577   7.602119  13.176895   # C_3
 238 2 5   0.000000  10.005564   6.293087  14.794800   # H_
 239 2 5   0.000000  10.162445   5.579676  13.196353   # H_
 240 2 7   0.000000  17.194954  14.262430  18.930144   # C_3
 241 2 5   0.000000  19.211546  14.695131  19.498297   # H_
 242 2 5   0.000000  18.813661  12.987907  19.545804   # H_
 243 2 5   0.000000   9.466374   8.484061  13.823270   # H_
 244 2 5   0.000000   8.446186   7.258569  13.072576   # H_
 245 2 5   0.000000   9.840977   7.894707  12.185851   # H_
 246 2 5   0.000000  17.021756  15.162950  18.332731   # H_
 247 2 5   0.000000  16.833222  14.454483  19.945438   # H_
 248 2 5   0.000000  16.593715  13.448662  18.513999   # H_
 249 1 6   0.000000  17.520819   0.000000  17.520819   # C_2
 250 1 10   0.000000  17.171805   0.000000  18.727815   # O_1
 251 1 10   0.000000  18.727823   0.000000  17.171832   # O_1
 252 1 8   0.000000  16.456831   0.000000  16.456806   # C_R
 253 1 8   0.000000  16.883845   0.000000  15.162811   # C_R
 254 2 9   0.000000  18.232698  20.667456  14.731832   # N_3
 255 1 5   0.000000  16.119869   0.000000  13.051803   # H_
 256 1 8   0.000000  15.887857   0.000000  14.167800   # C_R
 257 1 8   0.000000  14.593852   0.000000  14.593785   # C_R
 258 1 8   0.000000  14.167837   0.000000  15.887781   # C_R
 259 1 8   0.000000  15.162826   0.000000  16.883792   # C_R
 260 1 5   0.000000  14.930813   0.000000  17.999789   # H_
 261 2 9   0.000000  12.819205   0.071337  16.310981   # N_3
 262 1 10   0.000000  12.322860   0.000000  13.878760   # O_1
 263 1 6   0.000000  13.529864   0.000000  13.529773   # C_2
 264 1 10   0.000000  13.878877   0.000000  12.322777   # O_1
 265 2 5   0.000000  18.802074  20.642946  15.605822   # H_
 266 2 7   0.000000  18.656149   1.071019  13.873003   # C_3
 267 2 5   0.000000  17.999892   1.186096  13.003351   # H_
 268 2 5   0.000000  19.634066   0.796560  13.467999   # H_
 269 2 7   0.000000  18.767514   2.392375  14.642223   # C_3
 270 2 5   0.000000  17.781278   2.639754  15.054972   # H_
 271 2 7   0.000000  19.208781   3.566206  13.760374   # C_3
 272 2 5   0.000000  19.439777   2.283470  15.501523   # H_
 273 2 5   0.000000  18.856929   3.431717  12.730642   # H_
 274 2 7   0.000000   0.012607   3.852202  13.770187   # C_3
 275 2 5   0.000000  18.712028   4.470115  14.136659   # H_
 276 2 7   0.000000  12.367175  19.760083  17.259657   # C_3
 277 2 5   0.000000  12.248874   0.049347  15.437769   # H_
 278 2 5   0.000000  12.936327  19.812388  18.192719   # H_
 279 2 7   0.000000  12.396018  18.349475  16.665159   # C_3
 280 2 5   0.000000  11.332937  20.008293  17.526892   # H_
 281 2 5   0.000000  13.424579  18.052543  16.430683   # H_
 282 2 5   0.000000  11.857491  18.349047  15.708741   # H_
 283 2 7   0.000000  11.751938  17.297150  17.573590   # C_3
 284 2 7   0.000000  12.378130  17.146223  18.962449   # C_3
 285 2 5   0.000000  11.790949  16.328132  17.060421   # H_
 286 2 5   0.000000  10.688383  17.536640  17.696986   # H_
 287 2 7   0.000000   0.869623   2.748081  13.176895   # C_3
 288 2 5   0.000000   0.344636   4.057113  14.794800   # H_
 289 2 5   0.000000   0.187755   4.770524  13.196353   # H_
 290 2 7   0.000000  13.855646  16.788170  18.930144   # C_3
 291 2 5   0.000000  11.839054  16.355469  19.498297   # H_
 292 2 5   0.000000  12.236939  18.062693  19.545804   # H_
 293 2 5   0.000000   0.883826   1.866139  13.823270   # H_
 294 2 5   0.000000   1.904014   3.091631  13.072576   # H_
 295 2 5   0.000000   0.509223   2.455493  12.185851   # H_
 296 2 5   0.000000  14.028844  15.887650  18.332731   # H_
 297 2 5   0.000000  14.217378  16.596117  19.945438   # H_
 298 2 5   0.000000  14.456885  17.601938  18.513999   # H_
 299 1 6   0.000000  17.520819  10.350200   7.170619   # C_2
 300 1 10   0.000000  17.171805  10.350200   8.377615   # O_1
 301 1 10   0.000000  18.727823  10.350200   6.821632   # O_1
 302 1 8   0.000000  16.456831  10.350200   6.106606   # C_R
 303 1 8   0.000000  16.883845  10.350200   4.812611   # C_R
 304 2 9   0.000000  18.232698  10.317256   4.381632   # N_3
 305 1 5   0.000000  16.119869  10.350200   2.701603   # H_
 306 1 8   0.000000  15.887857  10.350200   3.817600   # C_R
 307 1 8   0.000000  14.593852  10.350200   4.243585   # C_R
 308 1 8   0.000000  14.167837  10.350200   5.537581   # C_R
 309 1 8   0.000000  15.162826  10.350200   6.533592   # C_R
 310 1 5   0.000000  14.930813  10.350200   7.649589   # H_
 311 2 9   0.000000  12.819205  10.421537   5.960781   # N_3
 312 1 10   0.000000  12.322860  10.350200   3.528560   # O_1
 313 1 6   0.000000  13.529864  10.350200   3.179573   # C_2
 314 1 10   0.000000  13.878877  10.350200   1.972577   # O_1
 315 2 5   0.000000  18.802074  10.292746   5.255622   # H_
 316 2 7   0.000000  18.656149  11.421219   3.522803   # C_3
 317 2 5   0.000000  17.999892  11.536296   2.653151   # H_
 318 2 5   0.000000  19.634066  11.146760   3.117799   # H_
 319 2 7   0.000000  18.767514  12.742575   4.292023   # C_3
 320 2 5   0.000000  17.781278  12.989954   4.704771   # H_
 321 2 7   0.000000  19.208781  13.916406   3.410174   # C_3
 322 2 5   0.000000  19.439777  12.633670   5.151323   # H_
 323 2 5   0.000000  18.856929  13.781917   2.380442   # H_
 324 2 7   0.000000   0.012607  14.202402   3.419987   # C_3
 325 2 5   0.000000  18.712028  14.820315   3.786459   # H_
 326 2 7   0.000000  12.367175   9.409883   6.909457   # C_3
 327 2 5   0.000000  12.248874  10.399547   5.087569   # H_
 328 2 5   0.000000  12.936327   9.462188   7.842519   # H_
 329 2 7   0.000000  12.396018   7.999275   6.314959   # C_3
 330 2 5   0.000000  11.332937   9.658093   7.176692   # H_
 331 2 5   0.000000  13.424579   7.702343   6.080483   # H_
 332 2 5   0.000000  11.857491   7.998847   5.358541   # H_
 333 2 7   0.000000  11.751938   6.946950   7.223390   # C_3
 334 2 7   0.000000  12.378130   6.796023   8.612249   # C_3
 335 2 5   0.000000  11.790949   5.977932   6.710221   # H_
 336 2 5   0.000000  10.688383   7.186440   7.346786   # H_
 337 2 7   0.000000   0.869623  13.098281   2.826695   # C_3
 338 2 5   0.000000   0.344637  14.407313   4.444599   # H_
 339 2 5   0.000000   0.187755  15.120724   2.846153   # H_
 340 2 7   0.000000  13.855646   6.437970   8.579944   # C_3
 341 2 5   0.000000  11.839054   6.005269   9.148097   # H_
 342 2 5   0.000000  12.236939   7.712493   9.195604   # H_
 343 2 5   0.000000   0.883826  12.216339   3.473070   # H_
 344 2 5   0.000000   1.904014  13.441831   2.722376   # H_
 345 2 5   0.000000   0.509223  12.805693   1.835651   # H_
 346 2 5   0.000000  14.028844   5.537450   7.982531   # H_
 347 2 5   0.000000  14.217378   6.245917   9.595238   # H_
 348 2 5   0.000000  14.456885   7.251738   8.163799   # H_
 349 1 6   0.000000   7.170619   0.000000   7.170619   # C_2
 350 1 10   0.000000   6.821605   0.000000   8.377615   # O_1
 351 1 10   0.000000   8.377623   0.000000   6.821632   # O_1
 352 1 8   0.000000   6.106631   0.000000   6.106606   # C_R
 353 1 8   0.000000   6.533645   0.000000   4.812611   # C_R
 354 2 9   0.000000   7.882498  20.667456   4.381632   # N_3
 355 1 5   0.000000   5.769669   0.000000   2.701603   # H_
 356 1 8   0.000000   5.537657   0.000000   3.817600   # C_R
 357 1 8   0.000000   4.243652   0.000000   4.243585   # C_R
 358 1 8   0.000000   3.817637   0.000000   5.537581   # C_R
 359 1 8   0.000000   4.812626   0.000000   6.533592   # C_R
 360 1 5   0.000000   4.580613   0.000000   7.649589   # H_
 361 2 9   0.000000   2.469005   0.071337   5.960781   # N_3
 362 1 10   0.000000   1.972660   0.000000   3.528560   # O_1
 363 1 6   0.000000   3.179664   0.000000   3.179573   # C_2
 364 1 10   0.000000   3.528677   0.000000   1.972577   # O_1
 365 2 5   0.000000   8.451874  20.642946   5.255622   # H_
 366 2 7   0.000000   8.305949   1.071019   3.522803   # C_3
 367 2 5   0.000000   7.649692   1.186096   2.653151   # H_
 368 2 5   0.000000   9.283866   0.796560   3.117799   # H_
 369 2 7   0.000000   8.417314   2.392375   4.292023   # C_3
 370 2 5   0.000000   7.431078   2.639754   4.704772   # H_
 371 2 7   0.000000   8.858581   3.566206   3.410174   # C_3
 372 2 5   0.000000   9.089577   2.283470   5.151323   # H_
 373 2 5   0.000000   8.506729   3.431717   2.380442   # H_
 374 2 7   0.000000  10.362807   3.852202   3.419987   # C_3
 375 2 5   0.000000   8.361828   4.470115   3.786459   # H_
 376 2 7   0.000000   2.016975  19.760083   6.909457   # C_3
 377 2 5   0.000000   1.898674   0.049347   5.087569   # H_
 378 2 5   0.000000   2.586127  19.812388   7.842519   # H_
 379 2 7   0.000000   2.045818  18.349475   6.314959   # C_3
 380 2 5   0.000000   0.982737  20.008293   7.176692   # H_
 381 2 5   0.000000   3.074379  18.052543   6.080483   # H_
 382 2 5   0.000000   1.507291  18.349047   5.358541   # H_
 383 2 7   0.000000   1.401738  17.297150   7.223390   # C_3
 384 2 7   0.000000   2.027930  17.146223   8.612249   # C_3
 385 2 5   0.000000   1.440749  16.328132   6.710221   # H_
 386 2 5   0.000000   0.338183  17.536640   7.346786   # H_
 387 2 7   0.000000  11.219823   2.748081   2.826695   # C_3
 388 2 5   0.000000  10.694836   4.057113   4.444600   # H_
 389 2 5   0.000000  10.537955   4.770524   2.846153   # H_
 390 2 7   0.000000   3.505446  16.788170   8.579944   # C_3
 391 2 5   0.000000   1.488854  16.355469   9.148097   # H_
 392 2 5   0.000000   1.886739  18.062693   9.195604   # H_
 393 2 5   0.000000  11.234026   1.866139   3.473070   # H_
 394 2 5   0.000000  12.254214   3.091631   2.722376   # H_
 395 2 5   0.000000  10.859423   2.455493   1.835651   # H_
 396 2 5   0.000000   3.678644  15.887650   7.982531   # H_
 397 2 5   0.000000   3.867178  16.596117   9.595238   # H_
 398 2 5   0.000000   4.106685  17.601938   8.163799   # H_
 399 1 6   0.000000   7.170619  10.350200  17.520819   # C_2
 400 1 10   0.000000   6.821605  10.350200  18.727815   # O_1
 401 1 10   0.000000   8.377623  10.350200  17.171832   # O_1
 402 1 8   0.000000   6.106631  10.350200  16.456806   # C_R
 403 1 8   0.000000   6.533645  10.350200  15.162811   # C_R
 404 2 9   0.000000   7.882498  10.317256  14.731832   # N_3
 405 1 5   0.000000   5.769669  10.350200  13.051803   # H_
 406 1 8   0.000000   5.537657  10.350200  14.167800   # C_R
 407 1 8   0.000000   4.243652  10.350200  14.593785   # C_R
 408 1 8   0.000000   3.817637  10.350200  15.887781   # C_R
 409 1 8   0.000000   4.812626  10.350200  16.883792   # C_R
 410 1 5   0.000000   4.580613  10.350200  17.999789   # H_
 411 2 9   0.000000   2.469005  10.421537  16.310981   # N_3
 412 1 10   0.000000   1.972660  10.350200  13.878760   # O_1
 413 1 6   0.000000   3.179664  10.350200  13.529773   # C_2
 414 1 10   0.000000   3.528677  10.350200  12.322777   # O_1
 415 2 5   0.000000   8.451874  10.292746  15.605822   # H_
 416 2 7   0.000000   8.305949  11.421219  13.873003   # C_3
 417 2 5   0.000000   7.649692  11.536296  13.003351   # H_
 418 2 5   0.000000   9.283866  11.146760  13.467999   # H_
 419 2 7   0.000000   8.417314  12.742575  14.642223   # C_3
 420 2 5   0.000000   7.431078  12.989954  15.054972   # H_
 421 2 7   0.000000   8.858581  13.916406  13.760374   # C_3
 422 2 5   0.000000   9.089577  12.633670  15.501523   # H_
 423 2 5   0.000000   8.506729  13.781917  12.730642   # H_
 424 2 7   0.000000  10.362807  14.202402  13.770187   # C_3
 425 2 5   0.000000   8.361828  14.820315  14.136659   # H_
 426 2 7   0.000000   2.016975   9.409883  17.259657   # C_3
 427 2 5   0.000000   1.898674  10.399547  15.437769   # H_
 428 2 5   0.000000   2.586127   9.462188  18.192719   # H_
 429 2 7   0.000000   2.045818   7.999275  16.665159   # C_3
 430 2 5   0.000000   0.982737   9.658093  17.526892   # H_
 431 2 5   0.000000   3.074379   7.702343  16.430683   # H_
 432 2 5   0.000000   1.507291   7.998847  15.708741   # H_
 433 2 7   0.000000   1.401738   6.946950  17.573590   # C_3
 434 2 7   0.000000   2.027930   6.796023  18.962449   # C_3
 435 2 5   0.000000   1.440749   5.977932  17.060421   # H_
 436 2 5   0.000000   0.338183   7.186440  17.696986   # H_
 437 2 7   0.000000  11.219823  13.098281  13.176895   # C_3
 438 2 5   0.000000  10.694836  14.407313  14.794800   # H_
 439 2 5   0.000000  10.537955  15.120724  13.196353   # H_
 440 2 7   0.000000   3.505446   6.437970  18.930144   # C_3
 441 2 5   0.000000   1.488854   6.005269  19.498297   # H_
 442 2 5   0.000000   1.886739   7.712493  19.545804   # H_
 443 2 5   0.000000  11.234026  12.216339  13.823270   # H_
 444 2 5   0.000000  12.254214  13.441831  13.072576   # H_
 445 2 5   0.000000  10.859423  12.805693  12.185851   # H_
 446 2 5   0.000000   3.678644   5.537450  18.332731   # H_
 447 2 5   0.000000   3.867178   6.245917  19.945438   # H_
 448 2 5   0.000000   4.106685   7.251738  18.513999   # H_
 449 1 6   0.000000  17.520819   3.179581   0.000000   # C_2
 450 1 10   0.000000  18.727815   3.528595  20.700400   # O_1
 451 1 10   0.000000  17.171832   1.972577   0.000000   # O_1
 452 1 8   0.000000  16.456806   4.243569  20.700400   # C_R
 453 1 8   0.000000  15.162811   3.816555   0.000000   # C_R
 454 2 9   0.000000  14.731832   2.467702   0.032944   # N_3
 455 1 5   0.000000  13.051803   4.580531   0.000000   # H_
 456 1 8   0.000000  14.167800   4.812543   0.000000   # C_R
 457 1 8   0.000000  14.593785   6.106548  20.700400   # C_R
 458 1 8   0.000000  15.887781   6.532563  20.700400   # C_R