 (written by mofun)

1352 atoms
720 bonds
1392 angles
1968 dihedrals
0 impropers

10 atom types
5 bond types
9 angle types
13 dihedral types
   0.000000  26.896000 xlo xhi
   0.000000  26.896000 ylo yhi
   0.000000  26.896000 zlo zhi

Masses

 1 91.2240   # Zr3+4
 2 15.9994   # O_3
 3 12.0107   # C_3
 4 1.0079   # H_
 5 1.0079   # H_
 6 12.0107   # C_2
 7 12.0107   # C_3
 8 12.0107   # C_R
 9 14.0067   # N_3
 10 15.9994   # O_1

Pair Coeffs

 1   0.069000   2.783168 # Zr3+4
 2   0.060000   3.118146 # O_3
 3   0.105000   3.430851 # C_3
 4   0.044000   2.571134 # H_
 5 0.044000 2.571134   # H_
 6 0.105000 3.430851   # C_2
 7 0.105000 3.430851   # C_3
 8 0.105000 3.430851   # C_R
 9 0.069000 3.260689   # N_3
 10 0.060000 3.118146   # O_1

Bond Coeffs

 1 560.312976 1.423192   # C_R N_3
 2 528.634538 1.451071   # C_3 N_3
 3 349.795899 1.514000   # C_3 C_3
 4 527.945261 1.044419   # H_ N_3
 5 331.069389 1.109401   # C_3 H_

Angle Coeffs

 1 cosine/periodic  282.369526  -1  3   # C_R C_R N_3
 2 fourier  268.482172  0.317506  0.313225  0.272502   # C_3 N_3 C_R
 3 fourier  150.574599  0.317506  0.313225  0.272502   # C_R N_3 H_
 4 fourier  144.695053  0.317506  0.313225  0.272502   # C_3 N_3 H_
 5 fourier  303.297032  0.343737  0.374972  0.281246   # C_3 C_3 N_3
 6 fourier  169.780468  0.343737  0.374972  0.281246   # H_ C_3 N_3
 7 fourier  117.318683  0.343737  0.374972  0.281246   # C_3 C_3 H_
 8 fourier  75.498766  0.343737  0.374972  0.281246   # H_ C_3 H_
 9 fourier  214.211821  0.343737  0.374972  0.281246   # C_3 C_3 C_3

Dihedral Coeffs

 1 harmonic 3.368555 -1 2   # C_R C_R C_R N_3 M=4
 2 harmonic 3.368555 -1 2   # H_ C_R C_R N_3 M=4
 3 harmonic 0.125000 -1 6   # C_3 N_3 C_R C_R M=4
 4 harmonic 0.125000 -1 6   # C_R C_R N_3 H_ M=4
 5 harmonic 0.081375 1 3   # C_3 C_3 N_3 C_R M=6
 6 harmonic 0.081375 1 3   # C_R N_3 C_3 H_ M=6
 7 harmonic 0.081375 1 3   # C_3 C_3 N_3 H_ M=6
 8 harmonic 0.081375 1 3   # H_ C_3 N_3 H_ M=6
 9 harmonic 0.117722 1 3   # C_3 C_3 C_3 N_3 M=9
 10 harmonic 0.117722 1 3   # H_ C_3 C_3 N_3 M=9
 11 harmonic 0.117722 1 3   # C_3 C_3 C_3 H_ M=9
 12 harmonic 0.117722 1 3   # H_ C_3 C_3 H_ M=9
 13 harmonic 0.117722 1 3   # C_3 C_3 C_3 C_3 M=9

Atoms

 1 1 1   0.000000   2.475508   0.000000   0.000000   # Zr3+4
 2 1 1   0.000000  24.420492   0.000000   0.000000   # Zr3+4
 3 1 1   0.000000   0.000000   2.475508   0.000000   # Zr3+4
 4 1 1   0.000000   0.000000  24.420492   0.000000   # Zr3+4
 5 1 1   0.000000   0.000000   0.000000   2.475508   # Zr3+4
 6 1 1   0.000000   0.000000   0.000000  24.420492   # Zr3+4
 7 1 1   0.000000   2.475508  13.448000  13.448000   # Zr3+4
 8 1 1   0.000000  24.420492  13.448000  13.448000   # Zr3+4
 9 1 1   0.000000   0.000000  15.923508  13.448000   # Zr3+4
 10 1 1   0.000000   0.000000  10.972492  13.448000   # Zr3+4
 11 1 1   0.000000   0.000000  13.448000  15.923508   # Zr3+4
 12 1 1   0.000000   0.000000  13.448000  10.972492   # Zr3+4
 13 1 1   0.000000  15.923508   0.000000  13.448000   # Zr3+4
 14 1 1   0.000000  10.972492   0.000000  13.448000   # Zr3+4
 15 1 1   0.000000  13.448000   2.475508  13.448000   # Zr3+4
 16 1 1   0.000000  13.448000  24.420492  13.448000   # Zr3+4
 17 1 1   0.000000  13.448000   0.000000  15.923508   # Zr3+4
 18 1 1   0.000000  13.448000   0.000000  10.972492   # Zr3+4
 19 1 1   0.000000  15.923508  13.448000   0.000000   # Zr3+4
 20 1 1   0.000000  10.972492  13.448000   0.000000   # Zr3+4
 21 1 1   0.000000  13.448000  15.923508   0.000000   # Zr3+4
 22 1 1   0.000000  13.448000  10.972492   0.000000   # Zr3+4
 23 1 1   0.000000  13.448000  13.448000   2.475508   # Zr3+4
 24 1 1   0.000000  13.448000  13.448000  24.420492   # Zr3+4
 25 1 2   0.000000   1.221078   1.221078   1.221078   # O_3
 26 1 2   0.000000  25.674922  25.674922   1.221078   # O_3
 27 1 2   0.000000  25.674922   1.221078  25.674922   # O_3
 28 1 2   0.000000   1.221078  25.674922  25.674922   # O_3
 29 1 2   0.000000   1.221078   1.221078  25.674922   # O_3
 30 1 2   0.000000  25.674922  25.674922  25.674922   # O_3
 31 1 2   0.000000   1.221078  25.674922   1.221078   # O_3
 32 1 2   0.000000  25.674922   1.221078   1.221078   # O_3
 33 1 2   0.000000   1.221078  14.669078  14.669078   # O_3
 34 1 2   0.000000  25.674922  12.226922  14.669078   # O_3
 35 1 2   0.000000  25.674922  14.669078  12.226922   # O_3
 36 1 2   0.000000   1.221078  12.226922  12.226922   # O_3
 37 1 2   0.000000   1.221078  14.669078  12.226922   # O_3
 38 1 2   0.000000  25.674922  12.226922  12.226922   # O_3
 39 1 2   0.000000   1.221078  12.226922  14.669078   # O_3
 40 1 2   0.000000  25.674922  14.669078  14.669078   # O_3
 41 1 2   0.000000  14.669078   1.221078  14.669078   # O_3
 42 1 2   0.000000  12.226922  25.674922  14.669078   # O_3
 43 1 2   0.000000  12.226922   1.221078  12.226922   # O_3
 44 1 2   0.000000  14.669078  25.674922  12.226922   # O_3
 45 1 2   0.000000  14.669078   1.221078  12.226922   # O_3
 46 1 2   0.000000  12.226922  25.674922  12.226922   # O_3
 47 1 2   0.000000  14.669078  25.674922  14.669078   # O_3
 48 1 2   0.000000  12.226922   1.221078  14.669078   # O_3
 49 1 2   0.000000  14.669078  14.669078   1.221078   # O_3
 50 1 2   0.000000  12.226922  12.226922   1.221078   # O_3
 51 1 2   0.000000  12.226922  14.669078  25.674922   # O_3
 52 1 2   0.000000  14.669078  12.226922  25.674922   # O_3
 53 1 2   0.000000  14.669078  14.669078  25.674922   # O_3
 54 1 2   0.000000  12.226922  12.226922  25.674922   # O_3
 55 1 2   0.000000  14.669078  12.226922   1.221078   # O_3
 56 1 2   0.000000  12.226922  14.669078   1.221078   # O_3
 57 1 10   0.000000   3.566410   0.000000   1.933822   # O_1
 58 1 6   0.000000   3.152211   0.000000   3.152223   # C_2
 59 1 10   0.000000   1.933811  26.896000   3.566424   # O_1
 60 1 8   0.000000   4.209211   0.000000   4.209222   # C_R
 61 1 8   0.000000   5.535211   0.000000   3.891921   # C_R
 62 1 8   0.000000   3.891912   0.000000   5.535222   # C_R
 63 1 8   0.000000   6.508812   0.000000   4.827820   # C_R
 64 1 5   0.000000   5.780010  26.896000   2.996221   # H_
 65 1 8   0.000000   4.827813  26.896000   6.508821   # C_R
 66 1 5   0.000000   2.996212  26.896000   5.780023   # H_
 67 1 8   0.000000   6.204913   0.000000   6.204920   # C_R
 68 1 8   0.000000   7.243114  26.896000   7.243120   # C_R
 69 1 5   0.000000   7.399112   0.000000   4.558920   # H_
 70 1 8   0.000000   8.620213   0.000000   6.939219   # C_R
 71 2 9   0.000000   4.283100   0.378519   7.808999   # N_3
 72 1 8   0.000000   6.939215   0.000000   8.620220   # C_R
 73 1 8   0.000000   9.556114   0.000000   7.912818   # C_R
 74 2 9   0.000000   9.184181  26.713951   5.623943   # N_3
 75 1 8   0.000000   7.912815   0.000000   9.556119   # C_R
 76 1 5   0.000000   6.048915   0.000000   8.889121   # H_
 77 1 8   0.000000   9.238815  26.896000   9.238818   # C_R
 78 1 6   0.000000  10.295816  26.896000  10.295817   # C_2
 79 1 5   0.000000  10.451814   0.000000   7.668017   # H_
 80 1 5   0.000000   7.668016   0.000000  10.451819   # H_
 81 1 10   0.000000  11.514216   0.000000   9.881616   # O_1
 82 1 10   0.000000   9.881617   0.000000  11.514218   # O_1
 83 2 7   0.000000   9.446679  25.285234   5.373044   # C_3
 84 2 7   0.000000   4.090556   1.846058   7.823872   # C_3
 85 2 7   0.000000   9.918864  25.084866   3.929278   # C_3
 86 2 7   0.000000   3.619102   2.329241   9.198188   # C_3
 87 2 5   0.000000   3.376041  26.818824   7.899014   # H_
 88 2 5   0.000000  10.061861   0.335345   5.598138   # H_
 89 2 7   0.000000   4.763417   2.461656  10.205565   # C_3
 90 2 5   0.000000   5.011209   2.371618   7.541351   # H_
 91 2 5   0.000000   8.529953  24.700440   5.518850   # H_
 92 2 5   0.000000   5.144409   1.469417  10.466640   # H_
 93 2 7   0.000000   4.309593   3.172975  11.480603   # C_3
 94 2 5   0.000000   5.589898   3.023110   9.753122   # H_
 95 2 7   0.000000  11.309208  25.673515   3.668422   # C_3
 96 2 5   0.000000  11.295016  26.757693   3.828127   # H_
 97 2 7   0.000000  11.775732  25.385807   2.241015   # C_3
 98 2 5   0.000000  12.027144  25.250405   4.381438   # H_
 99 2 5   0.000000  10.205131  24.896221   6.063696   # H_
 100 2 5   0.000000   3.315882   2.121920   7.096703   # H_
 101 2 5   0.000000   9.195312  25.529066   3.234763   # H_
 102 2 5   0.000000   9.943571  24.008075   3.721434   # H_
 103 2 5   0.000000   2.842641   1.665572   9.596937   # H_
 104 2 5   0.000000   3.158857   3.316555   9.065041   # H_
 105 2 5   0.000000   3.532121   2.582614  11.978718   # H_
 106 2 5   0.000000   3.870017   4.145813  11.231233   # H_
 107 2 5   0.000000  11.058921  25.802533   1.523922   # H_
 108 2 5   0.000000  11.813021  24.303448   2.071866   # H_
 109 2 5   0.000000   5.161646   3.295000  12.116224   # H_
 110 2 5   0.000000  12.743040  25.824107   2.110216   # H_
 111 1 10   0.000000  23.329590   0.000000   1.933822   # O_1
 112 1 6   0.000000  23.743789   0.000000   3.152223   # C_2
 113 1 10   0.000000  24.962189   0.000000   3.566424   # O_1
 114 1 8   0.000000  22.686789   0.000000   4.209222   # C_R
 115 1 8   0.000000  21.360789  26.896000   3.891921   # C_R
 116 1 8   0.000000  23.004088   0.000000   5.535222   # C_R
 117 1 8   0.000000  20.387188  26.896000   4.827820   # C_R
 118 1 5   0.000000  21.115990  26.896000   2.996221   # H_
 119 1 8   0.000000  22.068187   0.000000   6.508821   # C_R
 120 1 5   0.000000  23.899788   0.000000   5.780023   # H_
 121 1 8   0.000000  20.691087   0.000000   6.204920   # C_R
 122 1 8   0.000000  19.652886  26.896000   7.243120   # C_R
 123 1 5   0.000000  19.496888  26.896000   4.558920   # H_
 124 1 8   0.000000  18.275787  26.896000   6.939219   # C_R
 125 2 9   0.000000  22.612900  26.517481   7.808999   # N_3
 126 1 8   0.000000  19.956785   0.000000   8.620220   # C_R
 127 1 8   0.000000  17.339886  26.896000   7.912818   # C_R
 128 2 9   0.000000  17.711819   0.182049   5.623943   # N_3
 129 1 8   0.000000  18.983185   0.000000   9.556119   # C_R
 130 1 5   0.000000  20.847085   0.000000   8.889121   # H_
 131 1 8   0.000000  17.657185  26.896000   9.238818   # C_R
 132 1 6   0.000000  16.600184  26.896000  10.295817   # C_2
 133 1 5   0.000000  16.444186  26.896000   7.668017   # H_
 134 1 5   0.000000  19.227984   0.000000  10.451819   # H_
 135 1 10   0.000000  15.381784  26.896000   9.881616   # O_1
 136 1 10   0.000000  17.014383  26.896000  11.514218   # O_1
 137 2 7   0.000000  17.449321   1.610766   5.373044   # C_3
 138 2 7   0.000000  22.805444  25.049942   7.823872   # C_3
 139 2 7   0.000000  16.977136   1.811134   3.929278   # C_3
 140 2 7   0.000000  23.276898  24.566759   9.198188   # C_3
 141 2 5   0.000000  23.519959   0.077176   7.899014   # H_
 142 2 5   0.000000  16.834139  26.560655   5.598138   # H_
 143 2 7   0.000000  22.132583  24.434344  10.205565   # C_3
 144 2 5   0.000000  21.884791  24.524382   7.541351   # H_
 145 2 5   0.000000  18.366047   2.195560   5.518850   # H_
 146 2 5   0.000000  21.751591  25.426583  10.466640   # H_
 147 2 7   0.000000  22.586407  23.723025  11.480603   # C_3
 148 2 5   0.000000  21.306102  23.872890   9.753122   # H_
 149 2 7   0.000000  15.586792   1.222485   3.668422   # C_3
 150 2 5   0.000000  15.600984   0.138307   3.828127   # H_
 151 2 7   0.000000  15.120268   1.510193   2.241015   # C_3
 152 2 5   0.000000  14.868856   1.645595   4.381438   # H_
 153 2 5   0.000000  16.690869   1.999779   6.063696   # H_
 154 2 5   0.000000  23.580118  24.774080   7.096703   # H_
 155 2 5   0.000000  17.700688   1.366934   3.234763   # H_
 156 2 5   0.000000  16.952429   2.887925   3.721434   # H_
 157 2 5   0.000000  24.053359  25.230428   9.596937   # H_
 158 2 5   0.000000  23.737143  23.579445   9.065041   # H_
 159 2 5   0.000000  23.363879  24.313386  11.978718   # H_
 160 2 5   0.000000  23.025983  22.750187  11.231233   # H_
 161 2 5   0.000000  15.837079   1.093467   1.523922   # H_
 162 2 5   0.000000  15.082979   2.592552   2.071866   # H_
 163 2 5   0.000000  21.734354  23.601000  12.116224   # H_
 164 2 5   0.000000  14.152960   1.071893   2.110216   # H_
 165 1 10   0.000000  23.329590   0.000000  24.962178   # O_1
 166 1 6   0.000000  23.743789   0.000000  23.743777   # C_2
 167 1 10   0.000000  24.962189   0.000000  23.329576   # O_1
 168 1 8   0.000000  22.686789   0.000000  22.686778   # C_R
 169 1 8   0.000000  21.360789  26.896000  23.004079   # C_R
 170 1 8   0.000000  23.004088   0.000000  21.360778   # C_R
 171 1 8   0.000000  20.387188  26.896000  22.068180   # C_R
 172 1 5   0.000000  21.115990  26.896000  23.899779   # H_
 173 1 8   0.000000  22.068187   0.000000  20.387179   # C_R
 174 1 5   0.000000  23.899788   0.000000  21.115977   # H_
 175 1 8   0.000000  20.691087   0.000000  20.691080   # C_R
 176 1 8   0.000000  19.652886  26.896000  19.652880   # C_R
 177 1 5   0.000000  19.496888  26.896000  22.337080   # H_
 178 1 8   0.000000  18.275787  26.896000  19.956781   # C_R
 179 2 9   0.000000  22.612900   0.378519  19.087001   # N_3
 180 1 8   0.000000  19.956785   0.000000  18.275780   # C_R
 181 1 8   0.000000  17.339886  26.896000  18.983182   # C_R
 182 2 9   0.000000  17.711819  26.713951  21.272057   # N_3
 183 1 8   0.000000  18.983185   0.000000  17.339881   # C_R
 184 1 5   0.000000  20.847085   0.000000  18.006879   # H_
 185 1 8   0.000000  17.657185  26.896000  17.657182   # C_R
 186 1 6   0.000000  16.600184  26.896000  16.600183   # C_2
 187 1 5   0.000000  16.444186  26.896000  19.227983   # H_
 188 1 5   0.000000  19.227984   0.000000  16.444181   # H_
 189 1 10   0.000000  15.381784  26.896000  17.014384   # O_1
 190 1 10   0.000000  17.014383  26.896000  15.381782   # O_1
 191 2 7   0.000000  17.449321  25.285234  21.522956   # C_3
 192 2 7   0.000000  22.805444   1.846058  19.072128   # C_3
 193 2 7   0.000000  16.977136  25.084866  22.966722   # C_3
 194 2 7   0.000000  23.276898   2.329241  17.697812   # C_3
 195 2 5   0.000000  23.519959  26.818824  18.996986   # H_
 196 2 5   0.000000  16.834139   0.335345  21.297862   # H_
 197 2 7   0.000000  22.132583   2.461656  16.690435   # C_3
 198 2 5   0.000000  21.884791   2.371618  19.354649   # H_
 199 2 5   0.000000  18.366047  24.700440  21.377150   # H_
 200 2 5   0.000000  21.751591   1.469417  16.429360   # H_
 201 2 7   0.000000  22.586407   3.172975  15.415397   # C_3
 202 2 5   0.000000  21.306102   3.023110  17.142878   # H_
 203 2 7   0.000000  15.586792  25.673515  23.227578   # C_3
 204 2 5   0.000000  15.600984  26.757693  23.067873   # H_
 205 2 7   0.000000  15.120268  25.385807  24.654985   # C_3
 206 2 5   0.000000  14.868856  25.250405  22.514562   # H_
 207 2 5   0.000000  16.690869  24.896221  20.832304   # H_
 208 2 5   0.000000  23.580118   2.121920  19.799297   # H_
 209 2 5   0.000000  17.700688  25.529066  23.661237   # H_
 210 2 5   0.000000  16.952429  24.008075  23.174566   # H_
 211 2 5   0.000000  24.053359   1.665572  17.299063   # H_
 212 2 5   0.000000  23.737143   3.316555  17.830959   # H_
 213 2 5   0.000000  23.363879   2.582614  14.917282   # H_
 214 2 5   0.000000  23.025983   4.145813  15.664767   # H_
 215 2 5   0.000000  15.837079  25.802533  25.372078   # H_
 216 2 5   0.000000  15.082979  24.303448  24.824134   # H_
 217 2 5   0.000000  21.734354   3.295000  14.779776   # H_
 218 2 5   0.000000  14.152960  25.824107  24.785784   # H_
 219 1 10   0.000000   3.566410   0.000000  24.962178   # O_1
 220 1 6   0.000000   3.152211   0.000000  23.743777   # C_2
 221 1 10   0.000000   1.933811   0.000000  23.329576   # O_1
 222 1 8   0.000000   4.209211   0.000000  22.686778   # C_R
 223 1 8   0.000000   5.535211   0.000000  23.004079   # C_R
 224 1 8   0.000000   3.891912   0.000000  21.360778   # C_R
 225 1 8   0.000000   6.508812   0.000000  22.068180   # C_R
 226 1 5   0.000000   5.780010   0.000000  23.899779   # H_
 227 1 8   0.000000   4.827813   0.000000  20.387179   # C_R
 228 1 5   0.000000   2.996212   0.000000  21.115977   # H_
 229 1 8   0.000000   6.204913   0.000000  20.691080   # C_R
 230 1 8   0.000000   7.243114   0.000000  19.652880   # C_R
 231 1 5   0.000000   7.399112   0.000000  22.337080   # H_
 232 1 8   0.000000   8.620213   0.000000  19.956781   # C_R
 233 2 9   0.000000   4.283100  26.517481  19.087001   # N_3
 234 1 8   0.000000   6.939215   0.000000  18.275780   # C_R
 235 1 8   0.000000   9.556114   0.000000  18.983182   # C_R
 236 2 9   0.000000   9.184181   0.182049  21.272057   # N_3
 237 1 8   0.000000   7.912815   0.000000  17.339881   # C_R
 238 1 5   0.000000   6.048915   0.000000  18.006879   # H_
 239 1 8   0.000000   9.238815   0.000000  17.657182   # C_R
 240 1 6   0.000000  10.295816   0.000000  16.600183   # C_2
 241 1 5   0.000000  10.451814   0.000000  19.227983   # H_
 242 1 5   0.000000   7.668016   0.000000  16.444181   # H_
 243 1 10   0.000000  11.514216   0.000000  17.014384   # O_1
 244 1 10   0.000000   9.881617   0.000000  15.381782   # O_1
 245 2 7   0.000000   9.446679   1.610766  21.522956   # C_3
 246 2 7   0.000000   4.090556  25.049942  19.072128   # C_3
 247 2 7   0.000000   9.918864   1.811134  22.966722   # C_3
 248 2 7   0.000000   3.619102  24.566759  17.697812   # C_3
 249 2 5   0.000000   3.376041   0.077176  18.996986   # H_
 250 2 5   0.000000  10.061861  26.560655  21.297862   # H_
 251 2 7   0.000000   4.763417  24.434344  16.690435   # C_3
 252 2 5   0.000000   5.011209  24.524382  19.354649   # H_
 253 2 5   0.000000   8.529953   2.195560  21.377150   # H_
 254 2 5   0.000000   5.144409  25.426583  16.429360   # H_
 255 2 7   0.000000   4.309593  23.723025  15.415397   # C_3
 256 2 5   0.000000   5.589898  23.872890  17.142878   # H_
 257 2 7   0.000000  11.309208   1.222485  23.227578   # C_3
 258 2 5   0.000000  11.295016   0.138307  23.067873   # H_
 259 2 7   0.000000  11.775732   1.510193  24.654985   # C_3
 260 2 5   0.000000  12.027144   1.645595  22.514562   # H_
 261 2 5   0.000000  10.205131   1.999779  20.832304   # H_
 262 2 5   0.000000   3.315882  24.774080  19.799297   # H_
 263 2 5   0.000000   9.195312   1.366934  23.661237   # H_
 264 2 5   0.000000   9.943571   2.887925  23.174566   # H_
 265 2 5   0.000000   2.842641  25.230428  17.299063   # H_
 266 2 5   0.000000   3.158857  23.579445  17.830959   # H_
 267 2 5   0.000000   3.532121  24.313386  14.917282   # H_
 268 2 5   0.000000   3.870017  22.750187  15.664767   # H_
 269 2 5   0.000000  11.058921   1.093467  25.372078   # H_
 270 2 5   0.000000  11.813021   2.592552  24.824134   # H_
 271 2 5   0.000000   5.161646  23.601000  14.779776   # H_
 272 2 5   0.000000  12.743040   1.071893  24.785784   # H_
 273 1 10   0.000000   1.933822   3.566410   0.000000   # O_1
 274 1 6   0.000000   3.152223   3.152211   0.000000   # C_2
 275 1 10   0.000000   3.566424   1.933811   0.000000   # O_1
 276 1 8   0.000000   4.209222   4.209211   0.000000   # C_R
 277 1 8   0.000000   3.891921   5.535211  26.896000   # C_R
 278 1 8   0.000000   5.535222   3.891912   0.000000   # C_R
 279 1 8   0.000000   4.827820   6.508812  26.896000   # C_R
 280 1 5   0.000000   2.996221   5.780010  26.896000   # H_
 281 1 8   0.000000   6.508821   4.827813   0.000000   # C_R
 282 1 5   0.000000   5.780023   2.996212   0.000000   # H_
 283 1 8   0.000000   6.204920   6.204913   0.000000   # C_R
 284 1 8   0.000000   7.243120   7.243114  26.896000   # C_R
 285 1 5   0.000000   4.558920   7.399112  26.896000   # H_
 286 1 8   0.000000   6.939219   8.620213  26.896000   # C_R
 287 2 9   0.000000   7.808999   4.283100   0.378519   # N_3
 288 1 8   0.000000   8.620220   6.939215   0.000000   # C_R
 289 1 8   0.000000   7.912818   9.556114  26.896000   # C_R
 290 2 9   0.000000   5.623943   9.184181  26.713951   # N_3
 291 1 8   0.000000   9.556119   7.912815   0.000000   # C_R
 292 1 5   0.000000   8.889121   6.048915   0.000000   # H_
 293 1 8   0.000000   9.238818   9.238815  26.896000   # C_R
 294 1 6   0.000000  10.295817  10.295816  26.896000   # C_2
 295 1 5   0.000000   7.668017  10.451814  26.896000   # H_
 296 1 5   0.000000  10.451819   7.668016   0.000000   # H_
 297 1 10   0.000000   9.881616  11.514216  26.896000   # O_1
 298 1 10   0.000000  11.514218   9.881617  26.896000   # O_1
 299 2 7   0.000000   5.373044   9.446679  25.285234   # C_3
 300 2 7   0.000000   7.823872   4.090556   1.846058   # C_3
 301 2 7   0.000000   3.929278   9.918864  25.084866   # C_3
 302 2 7   0.000000   9.198188   3.619102   2.329241   # C_3
 303 2 5   0.000000   7.899014   3.376041  26.818824   # H_
 304 2 5   0.000000   5.598138  10.061861   0.335345   # H_
 305 2 7   0.000000  10.205565   4.763417   2.461656   # C_3
 306 2 5   0.000000   7.541351   5.011209   2.371618   # H_
 307 2 5   0.000000   5.518850   8.529953  24.700440   # H_
 308 2 5   0.000000  10.466640   5.144409   1.469417   # H_
 309 2 7   0.000000  11.480603   4.309593   3.172975   # C_3
 310 2 5   0.000000   9.753122   5.589898   3.023110   # H_
 311 2 7   0.000000   3.668422  11.309208  25.673515   # C_3
 312 2 5   0.000000   3.828127  11.295016  26.757693   # H_
 313 2 7   0.000000   2.241015  11.775732  25.385807   # C_3
 314 2 5   0.000000   4.381438  12.027144  25.250405   # H_
 315 2 5   0.000000   6.063696  10.205131  24.896221   # H_
 316 2 5   0.000000   7.096703   3.315882   2.121920   # H_
 317 2 5   0.000000   3.234763   9.195312  25.529066   # H_
 318 2 5   0.000000   3.721434   9.943571  24.008075   # H_
 319 2 5   0.000000   9.596937   2.842641   1.665572   # H_
 320 2 5   0.000000   9.065041   3.158857   3.316555   # H_
 321 2 5   0.000000  11.978718   3.532121   2.582614   # H_
 322 2 5   0.000000  11.231233   3.870017   4.145813   # H_
 323 2 5   0.000000   1.523922  11.058921  25.802533   # H_
 324 2 5   0.000000   2.071866  11.813021  24.303448   # H_
 325 2 5   0.000000  12.116224   5.161646   3.295000   # H_
 326 2 5   0.000000   2.110216  12.743040  25.824107   # H_
 327 1 10   0.000000   1.933822  23.329590   0.000000   # O_1
 328 1 6   0.000000   3.152223  23.743789   0.000000   # C_2
 329 1 10   0.000000   3.566424  24.962189   0.000000   # O_1
 330 1 8   0.000000   4.209222  22.686789   0.000000   # C_R
 331 1 8   0.000000   3.891921  21.360789   0.000000   # C_R
 332 1 8   0.000000   5.535222  23.004088   0.000000   # C_R
 333 1 8   0.000000   4.827820  20.387188   0.000000   # C_R
 334 1 5   0.000000   2.996221  21.115990   0.000000   # H_
 335 1 8   0.000000   6.508821  22.068187   0.000000   # C_R
 336 1 5   0.000000   5.780023  23.899788   0.000000   # H_
 337 1 8   0.000000   6.204920  20.691087   0.000000   # C_R
 338 1 8   0.000000   7.243120  19.652886   0.000000   # C_R
 339 1 5   0.000000   4.558920  19.496888   0.000000   # H_
 340 1 8   0.000000   6.939219  18.275787   0.000000   # C_R
 341 2 9   0.000000   7.808999  22.612900  26.517481   # N_3
 342 1 8   0.000000   8.620220  19.956785   0.000000   # C_R
 343 1 8   0.000000   7.912818  17.339886   0.000000   # C_R
 344 2 9   0.000000   5.623943  17.711819   0.182049   # N_3
 345 1 8   0.000000   9.556119  18.983185   0.000000   # C_R
 346 1 5   0.000000   8.889121  20.847085   0.000000   # H_
 347 1 8   0.000000   9.238818  17.657185   0.000000   # C_R
 348 1 6   0.000000  10.295817  16.600184   0.000000   # C_2
 349 1 5   0.000000   7.668017  16.444186   0.000000   # H_
 350 1 5   0.000000  10.451819  19.227984   0.000000   # H_
 351 1 10   0.000000   9.881616  15.381784   0.000000   # O_1
 352 1 10   0.000000  11.514218  17.014383   0.000000   # O_1
 353 2 7   0.000000   5.373044  17.449321   1.610766   # C_3
 354 2 7   0.000000   7.823872  22.805444  25.049942   # C_3
 355 2 7   0.000000   3.929278  16.977136   1.811134   # C_3
 356 2 7   0.000000   9.198188  23.276898  24.566759   # C_3
 357 2 5   0.000000   7.899014  23.519959   0.077176   # H_
 358 2 5   0.000000   5.598138  16.834139  26.560655   # H_
 359 2 7   0.000000  10.205565  22.132583  24.434344   # C_3
 360 2 5   0.000000   7.541351  21.884791  24.524382   # H_
 361 2 5   0.000000   5.518850  18.366047   2.195560   # H_
 362 2 5   0.000000  10.466640  21.751591  25.426583   # H_
 363 2 7   0.000000  11.480603  22.586407  23.723025   # C_3
 364 2 5   0.000000   9.753122  21.306102  23.872890   # H_
 365 2 7   0.000000   3.668422  15.586792   1.222485   # C_3
 366 2 5   0.000000   3.828127  15.600984   0.138307   # H_
 367 2 7   0.000000   2.241015  15.120268   1.510193   # C_3
 368 2 5   0.000000   4.381438  14.868856   1.645595   # H_
 369 2 5   0.000000   6.063696  16.690869   1.999779   # H_
 370 2 5   0.000000   7.096703  23.580118  24.774080   # H_
 371 2 5   0.000000   3.234763  17.700688   1.366934   # H_
 372 2 5   0.000000   3.721434  16.952429   2.887925   # H_
 373 2 5   0.000000   9.596937  24.053359  25.230428   # H_
 374 2 5   0.000000   9.065041  23.737143  23.579445   # H_
 375 2 5   0.000000  11.978718  23.363879  24.313386   # H_
 376 2 5   0.000000  11.231233  23.025983  22.750187   # H_
 377 2 5   0.000000   1.523922  15.837079   1.093467   # H_
 378 2 5   0.000000   2.071866  15.082979   2.592552   # H_
 379 2 5   0.000000  12.116224  21.734354  23.601000   # H_
 380 2 5   0.000000   2.110216  14.152960   1.071893   # H_
 381 1 10   0.000000  24.962178  23.329590   0.000000   # O_1
 382 1 6   0.000000  23.743777  23.743789   0.000000   # C_2
 383 1 10   0.000000  23.329576  24.962189   0.000000   # O_1
 384 1 8   0.000000  22.686778  22.686789   0.000000   # C_R
 385 1 8   0.000000  23.004079  21.360789  26.896000   # C_R
 386 1 8   0.000000  21.360778  23.004088   0.000000   # C_R
 387 1 8   0.000000  22.068180  20.387188  26.896000   # C_R
 388 1 5   0.000000  23.899779  21.115990  26.896000   # H_
 389 1 8   0.000000  20.387179  22.068187   0.000000   # C_R
 390 1 5   0.000000  21.115977  23.899788   0.000000   # H_
 391 1 8   0.000000  20.691080  20.691087   0.000000   # C_R
 392 1 8   0.000000  19.652880  19.652886  26.896000   # C_R
 393 1 5   0.000000  22.337080  19.496888  26.896000   # H_
 394 1 8   0.000000  19.956781  18.275787  26.896000   # C_R
 395 2 9   0.000000  19.087001  22.612900   0.378519   # N_3
 396 1 8   0.000000  18.275780  19.956785   0.000000   # C_R
 397 1 8   0.000000  18.983182  17.339886  26.896000   # C_R
 398 2 9   0.000000  21.272057  17.711819  26.713951   # N_3
 399 1 8   0.000000  17.339881  18.983185   0.000000   # C_R
 400 1 5   0.000000  18.006879  20.847085   0.000000   # H_
 401 1 8   0.000000  17.657182  17.657185  26.896000   # C_R
 402 1 6   0.000000  16.600183  16.600184  26.896000   # C_2
 403 1 5   0.000000  19.227983  16.444186  26.896000   # H_
 404 1 5   0.000000  16.444181  19.227984   0.000000   # H_
 405 1 10   0.000000  17.014384  15.381784  26.896000   # O_1
 406 1 10   0.000000  15.381782  17.014383   0.000000   # O_1
 407 2 7   0.000000  21.522956  17.449321  25.285234   # C_3
 408 2 7   0.000000  19.072128  22.805444   1.846058   # C_3
 409 2 7   0.000000  22.966722  16.977136  25.084866   # C_3
 410 2 7   0.000000  17.697812  23.276898   2.329241   # C_3
 411 2 5   0.000000  18.996986  23.519959  26.818824   # H_
 412 2 5   0.000000  21.297862  16.834139   0.335345   # H_
 413 2 7   0.000000  16.690435  22.132583   2.461656   # C_3
 414 2 5   0.000000  19.354649  21.884791   2.371618   # H_
 415 2 5   0.000000  21.377150  18.366047  24.700440   # H_
 416 2 5   0.000000  16.429360  21.751591   1.469417   # H_
 417 2 7   0.000000  15.415397  22.586407   3.172975   # C_3
 418 2 5   0.000000  17.142878  21.306102   3.023110   # H_
 419 2 7   0.000000  23.227578  15.586792  25.673515   # C_3
 420 2 5   0.000000  23.067873  15.600984  26.757693   # H_
 421 2 7   0.000000  24.654985  15.120268  25.385807   # C_3
 422 2 5   0.000000  22.514562  14.868856  25.250405   # H_
 423 2 5   0.000000  20.832304  16.690869  24.896221   # H_
 424 2 5   0.000000  19.799297  23.580118   2.121920   # H_
 425 2 5   0.000000  23.661237  17.700688  25.529066   # H_
 426 2 5   0.000000  23.174566  16.952429  24.008075   # H_
 427 2 5   0.000000  17.299063  24.053359   1.665572   # H_
 428 2 5   0.000000  17.830959  23.737143   3.316555   # H_
 429 2 5   0.000000  14.917282  23.363879   2.582614   # H_
 430 2 5   0.000000  15.664767  23.025983   4.145813   # H_
 431 2 5   0.000000  25.372078  15.837079  25.802533   # H_
 432 2 5   0.000000  24.824134  15.082979  24.303448   # H_
 433 2 5   0.000000  14.779776  21.734354   3.295000   # H_
 434 2 5   0.000000  24.785784  14.152960  25.824107   # H_
 435 1 10   0.000000  24.962178   3.566410   0.000000   # O_1
 436 1 6   0.000000  23.743777   3.152211   0.000000   # C_2
 437 1 10   0.000000  23.329576   1.933811   0.000000   # O_1
 438 1 8   0.000000  22.686778   4.209211   0.000000   # C_R
 439 1 8   0.000000  23.004079   5.535211   0.000000   # C_R
 440 1 8   0.000000  21.360778   3.891912   0.000000   # C_R
 441 1 8   0.000000  22.068180   6.508812   0.000000   # C_R
 442 1 5   0.000000  23.899779   5.780010   0.000000   # H_
 443 1 8   0.000000  20.387179   4.827813   0.000000   # C_R
 444 1 5   0.000000  21.115977   2.996212   0.000000   # H_
 445 1 8   0.000000  20.691080   6.204913   0.000000   # C_R
 446 1 8   0.000000  19.652880   7.243114   0.000000   # C_R
 447 1 5   0.000000  22.337080   7.399112   0.000000   # H_
 448 1 8   0.000000  19.956781   8.620213   0.000000   # C_R
 449 2 9   0.000000  19.087001   4.283100  26.517481   # N_3
 450 1 8   0.000000  18.275780   6.939215   0.000000   # C_R
 451 1 8   0.000000  18.983182   9.556114   0.000000   # C_R
 452 2 9   0.000000  21.272057   9.184181   0.182049   # N_3
 453 1 8   0.000000  17.339881   7.912815   0.000000   # C_R
 454 1 5   0.000000  18.006879   6.048915   0.000000   # H_
 455 1 8   0.000000  17.657182   9.238815   0.000000   # C_R
 456 1 6   0.000000  16.600183  10.295816   0.000000   # C_2
 457 1 5   0.000000  19.227983  10.451814   0.000000   # H_
 458 1 5   0.000000  16.444181   7.668016   0.000000   # H_
 459 1 10   0.000000  17.014384  11.514216   0.000000   # O_1