 (written by mofun)

576 atoms
192 bonds
384 angles
480 dihedrals
0 impropers

10 atom types
2 bond types
3 angle types
4 dihedral types
   0.000000  20.700400 xlo xhi
   0.000000  20.700400 ylo yhi
   0.000000  20.700400 zlo zhi

Masses

 1 91.2240   # Zr3+4
 2 15.9994   # O_3
 3 12.0107   # C_3
 4 1.0079   # H_
 5 1.0079   # H_
 6 12.0107   # C_2
 7 12.0107   # C_3
 8 12.0107   # C_R
 9 15.9994   # O_1
 10 18.9984   # F_

Pair Coeffs

 1   0.069000   2.783168 # Zr3+4
 2   0.060000   3.118146 # O_3
 3   0.105000   3.430851 # C_3
 4   0.044000   2.571134 # H_
 5 0.044000 2.571134   # H_
 6 0.105000 3.430851   # C_2
 7 0.105000 3.430851   # C_3
 8 0.105000 3.430851   # C_R
 9 0.060000 3.118146   # O_1
 10 0.050000 2.996983   # F_

Bond Coeffs

 1 369.943935 1.486000   # C_3 C_R
 2 417.765733 1.381520   # C_3 F_

Angle Coeffs

 1 cosine/periodic  198.274298  -1  3   # C_3 C_R C_R
 2 fourier  228.308706  0.343737  0.374972  0.281246   # C_R C_3 F_
 3 fourier  232.152372  0.343737  0.374972  0.281246   # F_ C_3 F_

Dihedral Coeffs

 1 harmonic 0.083333 -1 6   # C_R C_R C_3 F_ M=6
 2 harmonic 3.368555 -1 2   # C_2 C_R C_R C_3 M=4
 3 harmonic 3.368555 -1 2   # C_3 C_R C_R C_R M=4
 4 harmonic 3.368555 -1 2   # C_3 C_R C_R H_ M=4

Atoms

 1 1 1   0.000000   2.481771   0.000000   0.000000   # Zr3+4
 2 1 1   0.000000   2.481771  10.350200  10.350200   # Zr3+4
 3 1 1   0.000000  12.831971   0.000000  10.350200   # Zr3+4
 4 1 1   0.000000  12.831971  10.350200   0.000000   # Zr3+4
 5 1 1   0.000000  18.218629   0.000000   0.000000   # Zr3+4
 6 1 1   0.000000  18.218629  10.350200  10.350200   # Zr3+4
 7 1 1   0.000000   7.868429   0.000000  10.350200   # Zr3+4
 8 1 1   0.000000   7.868429  10.350200   0.000000   # Zr3+4
 9 1 1   0.000000   0.000000   2.481771   0.000000   # Zr3+4
 10 1 1   0.000000   0.000000  12.831971  10.350200   # Zr3+4
 11 1 1   0.000000  10.350200   2.481771  10.350200   # Zr3+4
 12 1 1   0.000000  10.350200  12.831971   0.000000   # Zr3+4
 13 1 1   0.000000   0.000000  18.218629   0.000000   # Zr3+4
 14 1 1   0.000000   0.000000   7.868429  10.350200   # Zr3+4
 15 1 1   0.000000  10.350200  18.218629  10.350200   # Zr3+4
 16 1 1   0.000000  10.350200   7.868429   0.000000   # Zr3+4
 17 1 1   0.000000   0.000000   0.000000   2.481771   # Zr3+4
 18 1 1   0.000000   0.000000  10.350200  12.831971   # Zr3+4
 19 1 1   0.000000  10.350200   0.000000  12.831971   # Zr3+4
 20 1 1   0.000000  10.350200  10.350200   2.481771   # Zr3+4
 21 1 1   0.000000   0.000000   0.000000  18.218629   # Zr3+4
 22 1 1   0.000000   0.000000  10.350200   7.868429   # Zr3+4
 23 1 1   0.000000  10.350200   0.000000   7.868429   # Zr3+4
 24 1 1   0.000000  10.350200  10.350200  18.218629   # Zr3+4
 25 1 2   0.000000   1.161292   9.188908   9.188908   # O_3
 26 1 2   0.000000  11.511492  19.539108   9.188908   # O_3
 27 1 2   0.000000  11.511492   9.188908  19.539108   # O_3
 28 1 2   0.000000   9.188908   1.161292   9.188908   # O_3
 29 1 2   0.000000   9.188908  11.511492  19.539108   # O_3
 30 1 2   0.000000  19.539108  19.539108   1.161292   # O_3
 31 1 2   0.000000  19.539108   9.188908  11.511492   # O_3
 32 1 2   0.000000   1.161292   1.161292   1.161292   # O_3
 33 1 2   0.000000  11.511492  11.511492   1.161292   # O_3
 34 1 2   0.000000  19.539108   1.161292   1.161292   # O_3
 35 1 2   0.000000  19.539108  11.511492  11.511492   # O_3
 36 1 2   0.000000   9.188908   1.161292  11.511492   # O_3
 37 1 2   0.000000   9.188908  11.511492   1.161292   # O_3
 38 1 2   0.000000   1.161292  19.539108   1.161292   # O_3
 39 1 2   0.000000   1.161292   9.188908  11.511492   # O_3
 40 1 2   0.000000  11.511492  19.539108  11.511492   # O_3
 41 1 2   0.000000  11.511492   9.188908   1.161292   # O_3
 42 1 2   0.000000  19.539108  19.539108  19.539108   # O_3
 43 1 2   0.000000  19.539108   9.188908   9.188908   # O_3
 44 1 2   0.000000   9.188908  19.539108   9.188908   # O_3
 45 1 2   0.000000   9.188908   9.188908  19.539108   # O_3
 46 1 2   0.000000   1.161292   1.161292  19.539108   # O_3
 47 1 2   0.000000   1.161292  11.511492   9.188908   # O_3
 48 1 2   0.000000  11.511492   1.161292   9.188908   # O_3
 49 1 6   0.000000   3.179581   0.000000  17.520819   # C_2
 50 1 9   0.000000   3.528595   0.000000  18.727815   # O_1
 51 1 9   0.000000   1.972577  20.700400  17.171832   # O_1
 52 1 8   0.000000   4.243569   0.000000  16.456806   # C_R
 53 1 8   0.000000   3.816555  20.700400  15.162811   # C_R
 54 1 5   0.000000   2.700552  20.700400  14.930824   # H_
 55 2 7   0.000000   4.300596   0.000032  12.729924   # C_3
 56 1 8   0.000000   4.812543  20.700400  14.167800   # C_R
 57 1 8   0.000000   6.106548   0.000000  14.593785   # C_R
 58 1 8   0.000000   6.532563   0.000000  15.887781   # C_R
 59 1 8   0.000000   5.537574   0.000000  16.883792   # C_R
 60 2 7   0.000000   6.215270   0.000000  18.263708   # C_3
 61 1 5   0.000000   7.648566   0.000000  16.119768   # H_
 62 1 9   0.000000   8.377540   0.000000  13.878760   # O_1
 63 1 6   0.000000   7.170536   0.000000  13.529773   # C_2
 64 1 9   0.000000   6.821523  20.700400  12.322777   # O_1
 65 2 10   0.000000   2.915546   0.000058  12.692675   # F_
 66 2 10   0.000000   4.603998  19.588978  11.995520   # F_
 67 2 10   0.000000   4.604036   1.111503  11.995560   # F_
 68 2 10   0.000000   5.588398  20.700392  19.464370   # F_
 69 2 10   0.000000   7.070551   1.082024  18.364664   # F_
 70 2 10   0.000000   7.070562  19.618383  18.364658   # F_
 71 1 6   0.000000   3.179581  10.350200   7.170619   # C_2
 72 1 9   0.000000   3.528595  10.350200   8.377615   # O_1
 73 1 9   0.000000   1.972577  10.350200   6.821632   # O_1
 74 1 8   0.000000   4.243569  10.350200   6.106606   # C_R
 75 1 8   0.000000   3.816555  10.350200   4.812611   # C_R
 76 1 5   0.000000   2.700552  10.350200   4.580624   # H_
 77 2 7   0.000000   4.300596  10.350232   2.379724   # C_3
 78 1 8   0.000000   4.812543  10.350200   3.817600   # C_R
 79 1 8   0.000000   6.106548  10.350200   4.243585   # C_R
 80 1 8   0.000000   6.532563  10.350200   5.537581   # C_R
 81 1 8   0.000000   5.537574  10.350200   6.533592   # C_R
 82 2 7   0.000000   6.215270  10.350200   7.913508   # C_3
 83 1 5   0.000000   7.648566  10.350200   5.769568   # H_
 84 1 9   0.000000   8.377540  10.350200   3.528560   # O_1
 85 1 6   0.000000   7.170536  10.350200   3.179573   # C_2
 86 1 9   0.000000   6.821523  10.350200   1.972577   # O_1
 87 2 10   0.000000   2.915546  10.350258   2.342475   # F_
 88 2 10   0.000000   4.603998   9.238778   1.645320   # F_
 89 2 10   0.000000   4.604036  11.461703   1.645360   # F_
 90 2 10   0.000000   5.588398  10.350192   9.114170   # F_
 91 2 10   0.000000   7.070551  11.432224   8.014464   # F_
 92 2 10   0.000000   7.070562   9.268183   8.014458   # F_
 93 1 6   0.000000  13.529781   0.000000   7.170619   # C_2
 94 1 9   0.000000  13.878795   0.000000   8.377615   # O_1
 95 1 9   0.000000  12.322777  20.700400   6.821632   # O_1
 96 1 8   0.000000  14.593769   0.000000   6.106606   # C_R
 97 1 8   0.000000  14.166755  20.700400   4.812611   # C_R
 98 1 5   0.000000  13.050752  20.700400   4.580624   # H_
 99 2 7   0.000000  14.650796   0.000032   2.379724   # C_3
 100 1 8   0.000000  15.162743  20.700400   3.817600   # C_R
 101 1 8   0.000000  16.456748   0.000000   4.243585   # C_R
 102 1 8   0.000000  16.882763   0.000000   5.537581   # C_R
 103 1 8   0.000000  15.887774   0.000000   6.533592   # C_R
 104 2 7   0.000000  16.565470   0.000000   7.913508   # C_3
 105 1 5   0.000000  17.998766   0.000000   5.769568   # H_
 106 1 9   0.000000  18.727740   0.000000   3.528560   # O_1
 107 1 6   0.000000  17.520736   0.000000   3.179573   # C_2
 108 1 9   0.000000  17.171723  20.700400   1.972577   # O_1
 109 2 10   0.000000  13.265746   0.000058   2.342475   # F_
 110 2 10   0.000000  14.954198  19.588978   1.645320   # F_
 111 2 10   0.000000  14.954236   1.111503   1.645360   # F_
 112 2 10   0.000000  15.938598  20.700392   9.114170   # F_
 113 2 10   0.000000  17.420751   1.082024   8.014464   # F_
 114 2 10   0.000000  17.420762  19.618383   8.014458   # F_
 115 1 6   0.000000  13.529781  10.350200  17.520819   # C_2
 116 1 9   0.000000  13.878795  10.350200  18.727815   # O_1
 117 1 9   0.000000  12.322777  10.350200  17.171832   # O_1
 118 1 8   0.000000  14.593769  10.350200  16.456806   # C_R
 119 1 8   0.000000  14.166755  10.350200  15.162811   # C_R
 120 1 5   0.000000  13.050752  10.350200  14.930824   # H_
 121 2 7   0.000000  14.650796  10.350232  12.729924   # C_3
 122 1 8   0.000000  15.162743  10.350200  14.167800   # C_R
 123 1 8   0.000000  16.456748  10.350200  14.593785   # C_R
 124 1 8   0.000000  16.882763  10.350200  15.887781   # C_R
 125 1 8   0.000000  15.887774  10.350200  16.883792   # C_R
 126 2 7   0.000000  16.565470  10.350200  18.263708   # C_3
 127 1 5   0.000000  17.998766  10.350200  16.119768   # H_
 128 1 9   0.000000  18.727740  10.350200  13.878760   # O_1
 129 1 6   0.000000  17.520736  10.350200  13.529773   # C_2
 130 1 9   0.000000  17.171723  10.350200  12.322777   # O_1
 131 2 10   0.000000  13.265746  10.350258  12.692675   # F_
 132 2 10   0.000000  14.954198   9.238778  11.995520   # F_
 133 2 10   0.000000  14.954236  11.461703  11.995560   # F_
 134 2 10   0.000000  15.938598  10.350192  19.464370   # F_
 135 2 10   0.000000  17.420751  11.432224  18.364664   # F_
 136 2 10   0.000000  17.420762   9.268183  18.364658   # F_
 137 1 6   0.000000  17.520819   0.000000  17.520819   # C_2
 138 1 9   0.000000  17.171805   0.000000  18.727815   # O_1
 139 1 9   0.000000  18.727823   0.000000  17.171832   # O_1
 140 1 8   0.000000  16.456831   0.000000  16.456806   # C_R
 141 1 8   0.000000  16.883845   0.000000  15.162811   # C_R
 142 1 5   0.000000  17.999848   0.000000  14.930824   # H_
 143 2 7   0.000000  16.399804  20.700368  12.729924   # C_3
 144 1 8   0.000000  15.887857   0.000000  14.167800   # C_R
 145 1 8   0.000000  14.593852   0.000000  14.593785   # C_R
 146 1 8   0.000000  14.167837   0.000000  15.887781   # C_R
 147 1 8   0.000000  15.162826   0.000000  16.883792   # C_R
 148 2 7   0.000000  14.485130   0.000000  18.263708   # C_3
 149 1 5   0.000000  13.051834   0.000000  16.119768   # H_
 150 1 9   0.000000  12.322860   0.000000  13.878760   # O_1
 151 1 6   0.000000  13.529864   0.000000  13.529773   # C_2
 152 1 9   0.000000  13.878877   0.000000  12.322777   # O_1
 153 2 10   0.000000  17.784854  20.700342  12.692675   # F_
 154 2 10   0.000000  16.096402   1.111422  11.995520   # F_
 155 2 10   0.000000  16.096364  19.588897  11.995560   # F_
 156 2 10   0.000000  15.112002   0.000008  19.464370   # F_
 157 2 10   0.000000  13.629849  19.618376  18.364664   # F_
 158 2 10   0.000000  13.629838   1.082017  18.364658   # F_
 159 1 6   0.000000  17.520819  10.350200   7.170619   # C_2
 160 1 9   0.000000  17.171805  10.350200   8.377615   # O_1
 161 1 9   0.000000  18.727823  10.350200   6.821632   # O_1
 162 1 8   0.000000  16.456831  10.350200   6.106606   # C_R
 163 1 8   0.000000  16.883845  10.350200   4.812611   # C_R
 164 1 5   0.000000  17.999848  10.350200   4.580624   # H_
 165 2 7   0.000000  16.399804  10.350168   2.379724   # C_3
 166 1 8   0.000000  15.887857  10.350200   3.817600   # C_R
 167 1 8   0.000000  14.593852  10.350200   4.243585   # C_R
 168 1 8   0.000000  14.167837  10.350200   5.537581   # C_R
 169 1 8   0.000000  15.162826  10.350200   6.533592   # C_R
 170 2 7   0.000000  14.485130  10.350200   7.913508   # C_3
 171 1 5   0.000000  13.051834  10.350200   5.769568   # H_
 172 1 9   0.000000  12.322860  10.350200   3.528560   # O_1
 173 1 6   0.000000  13.529864  10.350200   3.179573   # C_2
 174 1 9   0.000000  13.878877  10.350200   1.972577   # O_1
 175 2 10   0.000000  17.784854  10.350142   2.342475   # F_
 176 2 10   0.000000  16.096402  11.461622   1.645320   # F_
 177 2 10   0.000000  16.096364   9.238697   1.645360   # F_
 178 2 10   0.000000  15.112002  10.350208   9.114170   # F_
 179 2 10   0.000000  13.629849   9.268176   8.014464   # F_
 180 2 10   0.000000  13.629838  11.432217   8.014458   # F_
 181 1 6   0.000000   7.170619   0.000000   7.170619   # C_2
 182 1 9   0.000000   6.821605   0.000000   8.377615   # O_1
 183 1 9   0.000000   8.377623   0.000000   6.821632   # O_1
 184 1 8   0.000000   6.106631   0.000000   6.106606   # C_R
 185 1 8   0.000000   6.533645   0.000000   4.812611   # C_R
 186 1 5   0.000000   7.649648   0.000000   4.580624   # H_
 187 2 7   0.000000   6.049604  20.700368   2.379724   # C_3
 188 1 8   0.000000   5.537657   0.000000   3.817600   # C_R
 189 1 8   0.000000   4.243652   0.000000   4.243585   # C_R
 190 1 8   0.000000   3.817637   0.000000   5.537581   # C_R
 191 1 8   0.000000   4.812626   0.000000   6.533592   # C_R
 192 2 7   0.000000   4.134930   0.000000   7.913508   # C_3
 193 1 5   0.000000   2.701634   0.000000   5.769568   # H_
 194 1 9   0.000000   1.972660   0.000000   3.528560   # O_1
 195 1 6   0.000000   3.179664   0.000000   3.179573   # C_2
 196 1 9   0.000000   3.528677   0.000000   1.972577   # O_1
 197 2 10   0.000000   7.434654  20.700342   2.342475   # F_
 198 2 10   0.000000   5.746202   1.111422   1.645320   # F_
 199 2 10   0.000000   5.746164  19.588897   1.645360   # F_
 200 2 10   0.000000   4.761802   0.000008   9.114170   # F_
 201 2 10   0.000000   3.279649  19.618376   8.014464   # F_
 202 2 10   0.000000   3.279638   1.082017   8.014458   # F_
 203 1 6   0.000000   7.170619  10.350200  17.520819   # C_2
 204 1 9   0.000000   6.821605  10.350200  18.727815   # O_1
 205 1 9   0.000000   8.377623  10.350200  17.171832   # O_1
 206 1 8   0.000000   6.106631  10.350200  16.456806   # C_R
 207 1 8   0.000000   6.533645  10.350200  15.162811   # C_R
 208 1 5   0.000000   7.649648  10.350200  14.930824   # H_
 209 2 7   0.000000   6.049604  10.350168  12.729924   # C_3
 210 1 8   0.000000   5.537657  10.350200  14.167800   # C_R
 211 1 8   0.000000   4.243652  10.350200  14.593785   # C_R
 212 1 8   0.000000   3.817637  10.350200  15.887781   # C_R
 213 1 8   0.000000   4.812626  10.350200  16.883792   # C_R
 214 2 7   0.000000   4.134930  10.350200  18.263708   # C_3
 215 1 5   0.000000   2.701634  10.350200  16.119768   # H_
 216 1 9   0.000000   1.972660  10.350200  13.878760   # O_1
 217 1 6   0.000000   3.179664  10.350200  13.529773   # C_2
 218 1 9   0.000000   3.528677  10.350200  12.322777   # O_1
 219 2 10   0.000000   7.434654  10.350142  12.692675   # F_
 220 2 10   0.000000   5.746202  11.461622  11.995520   # F_
 221 2 10   0.000000   5.746164   9.238697  11.995560   # F_
 222 2 10   0.000000   4.761802  10.350208  19.464370   # F_
 223 2 10   0.000000   3.279649   9.268176  18.364664   # F_
 224 2 10   0.000000   3.279638  11.432217  18.364658   # F_
 225 1 6   0.000000  17.520819   3.179581   0.000000   # C_2
 226 1 9   0.000000  18.727815   3.528595  20.700400   # O_1
 227 1 9   0.000000  17.171832   1.972577   0.000000   # O_1
 228 1 8   0.000000  16.456806   4.243569  20.700400   # C_R
 229 1 8   0.000000  15.162811   3.816555   0.000000   # C_R
 230 1 5   0.000000  14.930824   2.700552   0.000000   # H_
 231 2 7   0.000000  12.729924   4.300596   0.000032   # C_3
 232 1 8   0.000000  14.167800   4.812543   0.000000   # C_R
 233 1 8   0.000000  14.593785   6.106548  20.700400   # C_R
 234 1 8   0.000000  15.887781   6.532563  20.700400   # C_R
 235 1 8   0.000000  16.883792   5.537574  20.700400   # C_R
 236 2 7   0.000000  18.263708   6.215270  20.700400   # C_3
 237 1 5   0.000000  16.119768   7.648566  20.700400   # H_
 238 1 9   0.000000  13.878760   8.377540  20.700400   # O_1
 239 1 6   0.000000  13.529773   7.170536  20.700400   # C_2
 240 1 9   0.000000  12.322777   6.821523   0.000000   # O_1
 241 2 10   0.000000  12.692675   2.915546   0.000058   # F_
 242 2 10   0.000000  11.995520   4.603998  19.588978   # F_
 243 2 10   0.000000  11.995560   4.604036   1.111503   # F_
 244 2 10   0.000000  19.464370   5.588398  20.700392   # F_
 245 2 10   0.000000  18.364664   7.070551   1.082024   # F_
 246 2 10   0.000000  18.364658   7.070562  19.618383   # F_
 247 1 6   0.000000  17.520819  13.529781  10.350200   # C_2
 248 1 9   0.000000  18.727815  13.878795  10.350200   # O_1
 249 1 9   0.000000  17.171832  12.322777  10.350200   # O_1
 250 1 8   0.000000  16.456806  14.593769  10.350200   # C_R
 251 1 8   0.000000  15.162811  14.166755  10.350200   # C_R
 252 1 5   0.000000  14.930824  13.050752  10.350200   # H_
 253 2 7   0.000000  12.729924  14.650796  10.350232   # C_3
 254 1 8   0.000000  14.167800  15.162743  10.350200   # C_R
 255 1 8   0.000000  14.593785  16.456748  10.350200   # C_R
 256 1 8   0.000000  15.887781  16.882763  10.350200   # C_R
 257 1 8   0.000000  16.883792  15.887774  10.350200   # C_R
 258 2 7   0.000000  18.263708  16.565470  10.350200   # C_3
 259 1 5   0.000000  16.119768  17.998766  10.350200   # H_
 260 1 9   0.000000  13.878760  18.727740  10.350200   # O_1
 261 1 6   0.000000  13.529773  17.520736  10.350200   # C_2
 262 1 9   0.000000  12.322777  17.171723  10.350200   # O_1
 263 2 10   0.000000  12.692675  13.265746  10.350258   # F_
 264 2 10   0.000000  11.995520  14.954198   9.238778   # F_
 265 2 10   0.000000  11.995560  14.954236  11.461703   # F_
 266 2 10   0.000000  19.464370  15.938598  10.350192   # F_
 267 2 10   0.000000  18.364664  17.420751  11.432224   # F_
 268 2 10   0.000000  18.364658  17.420762   9.268183   # F_
 269 1 6   0.000000   7.170619   3.179581  10.350200   # C_2
 270 1 9   0.000000   8.377615   3.528595  10.350200   # O_1
 271 1 9   0.000000   6.821632   1.972577  10.350200   # O_1
 272 1 8   0.000000   6.106606   4.243569  10.350200   # C_R
 273 1 8   0.000000   4.812611   3.816555  10.350200   # C_R
 274 1 5   0.000000   4.580624   2.700552  10.350200   # H_
 275 2 7   0.000000   2.379724   4.300596  10.350232   # C_3
 276 1 8   0.000000   3.817600   4.812543  10.350200   # C_R
 277 1 8   0.000000   4.243585   6.106548  10.350200   # C_R
 278 1 8   0.000000   5.537581   6.532563  10.350200   # C_R
 279 1 8   0.000000   6.533592   5.537574  10.350200   # C_R
 280 2 7   0.000000   7.913508   6.215270  10.350200   # C_3
 281 1 5   0.000000   5.769568   7.648566  10.350200   # H_
 282 1 9   0.000000   3.528560   8.377540  10.350200   # O_1
 283 1 6   0.000000   3.179573   7.170536  10.350200   # C_2
 284 1 9   0.000000   1.972577   6.821523  10.350200   # O_1
 285 2 10   0.000000   2.342475   2.915546  10.350258   # F_
 286 2 10   0.000000   1.645320   4.603998   9.238778   # F_
 287 2 10   0.000000   1.645360   4.604036  11.461703   # F_
 288 2 10   0.000000   9.114170   5.588398  10.350192   # F_
 289 2 10   0.000000   8.014464   7.070551  11.432224   # F_
 290 2 10   0.000000   8.014458   7.070562   9.268183   # F_
 291 1 6   0.000000   7.170619  13.529781   0.000000   # C_2
 292 1 9   0.000000   8.377615  13.878795   0.000000   # O_1
 293 1 9   0.000000   6.821632  12.322777  20.700400   # O_1
 294 1 8   0.000000   6.106606  14.593769   0.000000   # C_R
 295 1 8   0.000000   4.812611  14.166755   0.000000   # C_R
 296 1 5   0.000000   4.580624  13.050752  20.700400   # H_
 297 2 7   0.000000   2.379724  14.650796   0.000032   # C_3
 298 1 8   0.000000   3.817600  15.162743   0.000000   # C_R
 299 1 8   0.000000   4.243585  16.456748   0.000000   # C_R
 300 1 8   0.000000   5.537581  16.882763   0.000000   # C_R
 301 1 8   0.000000   6.533592  15.887774   0.000000   # C_R
 302 2 7   0.000000   7.913508  16.565470   0.000000   # C_3
 303 1 5   0.000000   5.769568  17.998766   0.000000   # H_
 304 1 9   0.000000   3.528560  18.727740   0.000000   # O_1
 305 1 6   0.000000   3.179573  17.520736   0.000000   # C_2
 306 1 9   0.000000   1.972577  17.171723   0.000000   # O_1
 307 2 10   0.000000   2.342475  13.265746   0.000058   # F_
 308 2 10   0.000000   1.645320  14.954198  19.588978   # F_
 309 2 10   0.000000   1.645360  14.954236   1.111503   # F_
 310 2 10   0.000000   9.114170  15.938598  20.700392   # F_
 311 2 10   0.000000   8.014464  17.420751   1.082024   # F_
 312 2 10   0.000000   8.014458  17.420762  19.618383   # F_
 313 1 6   0.000000  17.520819  17.520819   0.000000   # C_2
 314 1 9   0.000000  18.727815  17.171805  20.700400   # O_1
 315 1 9   0.000000  17.171832  18.727823   0.000000   # O_1
 316 1 8   0.000000  16.456806  16.456831   0.000000   # C_R
 317 1 8   0.000000  15.162811  16.883845   0.000000   # C_R
 318 1 5   0.000000  14.930824  17.999848   0.000000   # H_
 319 2 7   0.000000  12.729924  16.399804  20.700368   # C_3
 320 1 8   0.000000  14.167800  15.887857   0.000000   # C_R
 321 1 8   0.000000  14.593785  14.593852   0.000000   # C_R
 322 1 8   0.000000  15.887781  14.167837  20.700400   # C_R
 323 1 8   0.000000  16.883792  15.162826  20.700400   # C_R
 324 2 7   0.000000  18.263708  14.485130  20.700400   # C_3
 325 1 5   0.000000  16.119768  13.051834  20.700400   # H_
 326 1 9   0.000000  13.878760  12.322860  20.700400   # O_1
 327 1 6   0.000000  13.529773  13.529864   0.000000   # C_2
 328 1 9   0.000000  12.322777  13.878877   0.000000   # O_1
 329 2 10   0.000000  12.692675  17.784854  20.700342   # F_
 330 2 10   0.000000  11.995520  16.096402   1.111422   # F_
 331 2 10   0.000000  11.995560  16.096364  19.588897   # F_
 332 2 10   0.000000  19.464370  15.112002   0.000008   # F_
 333 2 10   0.000000  18.364664  13.629849  19.618376   # F_
 334 2 10   0.000000  18.364658  13.629838   1.082017   # F_
 335 1 6   0.000000  17.520819   7.170619  10.350200   # C_2
 336 1 9   0.000000  18.727815   6.821605  10.350200   # O_1
 337 1 9   0.000000  17.171832   8.377623  10.350200   # O_1
 338 1 8   0.000000  16.456806   6.106631  10.350200   # C_R
 339 1 8   0.000000  15.162811   6.533645  10.350200   # C_R
 340 1 5   0.000000  14.930824   7.649648  10.350200   # H_
 341 2 7   0.000000  12.729924   6.049604  10.350168   # C_3
 342 1 8   0.000000  14.167800   5.537657  10.350200   # C_R
 343 1 8   0.000000  14.593785   4.243652  10.350200   # C_R
 344 1 8   0.000000  15.887781   3.817637  10.350200   # C_R
 345 1 8   0.000000  16.883792   4.812626  10.350200   # C_R
 346 2 7   0.000000  18.263708   4.134930  10.350200   # C_3
 347 1 5   0.000000  16.119768   2.701634  10.350200   # H_
 348 1 9   0.000000  13.878760   1.972660  10.350200   # O_1
 349 1 6   0.000000  13.529773   3.179664  10.350200   # C_2
 350 1 9   0.000000  12.322777   3.528677  10.350200   # O_1
 351 2 10   0.000000  12.692675   7.434654  10.350142   # F_
 352 2 10   0.000000  11.995520   5.746202  11.461622   # F_
 353 2 10   0.000000  11.995560   5.746164   9.238697   # F_
 354 2 10   0.000000  19.464370   4.761802  10.350208   # F_
 355 2 10   0.000000  18.364664   3.279649   9.268176   # F_
 356 2 10   0.000000  18.364658   3.279638  11.432217   # F_
 357 1 6   0.000000   7.170619  17.520819  10.350200   # C_2
 358 1 9   0.000000   8.377615  17.171805  10.350200   # O_1
 359 1 9   0.000000   6.821632  18.727823  10.350200   # O_1
 360 1 8   0.000000   6.106606  16.456831  10.350200   # C_R
 361 1 8   0.000000   4.812611  16.883845  10.350200   # C_R
 362 1 5   0.000000   4.580624  17.999848  10.350200   # H_
 363 2 7   0.000000   2.379724  16.399804  10.350168   # C_3
 364 1 8   0.000000   3.817600  15.887857  10.350200   # C_R
 365 1 8   0.000000   4.243585  14.593852  10.350200   # C_R
 366 1 8   0.000000   5.537581  14.167837  10.350200   # C_R
 367 1 8   0.000000   6.533592  15.162826  10.350200   # C_R
 368 2 7   0.000000   7.913508  14.485130  10.350200   # C_3
 369 1 5   0.000000   5.769568  13.051834  10.350200   # H_
 370 1 9   0.000000   3.528560  12.322860  10.350200   # O_1
 371 1 6   0.000000   3.179573  13.529864  10.350200   # C_2
 372 1 9   0.000000   1.972577  13.878877  10.350200   # O_1
 373 2 10   0.000000   2.342475  17.784854  10.350142   # F_
 374 2 10   0.000000   1.645320  16.096402  11.461622   # F_
 375 2 10   0.000000   1.645360  16.096364   9.238697   # F_
 376 2 10   0.000000   9.114170  15.112002  10.350208   # F_
 377 2 10   0.000000   8.014464  13.629849   9.268176   # F_
 378 2 10   0.000000   8.014458  13.629838  11.432217   # F_
 379 1 6   0.000000   7.170619   7.170619   0.000000   # C_2
 380 1 9   0.000000   8.377615   6.821605  20.700400   # O_1
 381 1 9   0.000000   6.821632   8.377623   0.000000   # O_1
 382 1 8   0.000000   6.106606   6.106631   0.000000   # C_R
 383 1 8   0.000000   4.812611   6.533645   0.000000   # C_R
 384 1 5   0.000000   4.580624   7.649648   0.000000   # H_
 385 2 7   0.000000   2.379724   6.049604  20.700368   # C_3
 386 1 8   0.000000   3.817600   5.537657   0.000000   # C_R
 387 1 8   0.000000   4.243585   4.243652   0.000000   # C_R
 388 1 8   0.000000   5.537581   3.817637   0.000000   # C_R
 389 1 8   0.000000   6.533592   4.812626  20.700400   # C_R
 390 2 7   0.000000   7.913508   4.134930  20.700400   # C_3
 391 1 5   0.000000   5.769568   2.701634  20.700400   # H_
 392 1 9   0.000000   3.528560   1.972660   0.000000   # O_1
 393 1 6   0.000000   3.179573   3.179664   0.000000   # C_2
 394 1 9   0.000000   1.972577   3.528677   0.000000   # O_1
 395 2 10   0.000000   2.342475   7.434654  20.700342   # F_
 396 2 10   0.000000   1.645320   5.746202   1.111422   # F_
 397 2 10   0.000000   1.645360   5.746164  19.588897   # F_
 398 2 10   0.000000   9.114170   4.761802   0.000008   # F_
 399 2 10   0.000000   8.014464   3.279649  19.618376   # F_
 400 2 10   0.000000   8.014458   3.279638   1.082017   # F_
 401 1 6   0.000000   0.000000  17.520819   3.179581   # C_2
 402 1 9   0.000000   0.000000  18.727815   3.528595   # O_1
 403 1 9   0.000000  20.700400  17.171832   1.972577   # O_1
 404 1 8   0.000000   0.000000  16.456806   4.243569   # C_R
 405 1 8   0.000000   0.000000  15.162811   3.816555   # C_R
 406 1 5   0.000000  20.700400  14.930824   2.700552   # H_
 407 2 7   0.000000   0.000032  12.729924   4.300596   # C_3
 408 1 8   0.000000   0.000000  14.167800   4.812543   # C_R
 409 1 8   0.000000   0.000000  14.593785   6.106548   # C_R
 410 1 8   0.000000   0.000000  15.887781   6.532563   # C_R
 411 1 8   0.000000   0.000000  16.883792   5.537574   # C_R
 412 2 7   0.000000   0.000000  18.263708   6.215270   # C_3
 413 1 5   0.000000   0.000000  16.119768   7.648566   # H_
 414 1 9   0.000000   0.000000  13.878760   8.377540   # O_1
 415 1 6   0.000000   0.000000  13.529773   7.170536   # C_2
 416 1 9   0.000000   0.000000  12.322777   6.821523   # O_1
 417 2 10   0.000000   0.000058  12.692675   2.915546   # F_
 418 2 10   0.000000  19.588978  11.995520   4.603998   # F_
 419 2 10   0.000000   1.111503  11.995560   4.604036   # F_
 420 2 10   0.000000  20.700392  19.464370   5.588398   # F_
 421 2 10   0.000000   1.082024  18.364664   7.070551   # F_
 422 2 10   0.000000  19.618383  18.364658   7.070562   # F_
 423 1 6   0.000000   0.000000   7.170619  13.529781   # C_2
 424 1 9   0.000000   0.000000   8.377615  13.878795   # O_1
 425 1 9   0.000000  20.700400   6.821632  12.322777   # O_1
 426 1 8   0.000000   0.000000   6.106606  14.593769   # C_R
 427 1 8   0.000000   0.000000   4.812611  14.166755   # C_R
 428 1 5   0.000000  20.700400   4.580624  13.050752   # H_
 429 2 7   0.000000   0.000032   2.379724  14.650796   # C_3
 430 1 8   0.000000   0.000000   3.817600  15.162743   # C_R
 431 1 8   0.000000   0.000000   4.243585  16.456748   # C_R
 432 1 8   0.000000   0.000000   5.537581  16.882763   # C_R
 433 1 8   0.000000   0.000000   6.533592  15.887774   # C_R
 434 2 7   0.000000   0.000000   7.913508  16.565470   # C_3
 435 1 5   0.000000   0.000000   5.769568  17.998766   # H_
 436 1 9   0.000000   0.000000   3.528560  18.727740   # O_1
 437 1 6   0.000000   0.000000   3.179573  17.520736   # C_2
 438 1 9   0.000000   0.000000   1.972577  17.171723   # O_1
 439 2 10   0.000000   0.000058   2.342475  13.265746   # F_
 440 2 10   0.000000  19.588978   1.645320  14.954198   # F_
 441 2 10   0.000000   1.111503   1.645360  14.954236   # F_
 442 2 10   0.000000  20.700392   9.114170  15.938598   # F_
 443 2 10   0.000000   1.082024   8.014464  17.420751   # F_
 444 2 10   0.000000  19.618383   8.014458  17.420762   # F_
 445 1 6   0.000000  10.350200  17.520819  13.529781   # C_2
 446 1 9   0.000000  10.350200  18.727815  13.878795   # O_1
 447 1 9   0.000000  10.350200  17.171832  12.322777   # O_1
 448 1 8   0.000000  10.350200  16.456806  14.593769   # C_R
 449 1 8   0.000000  10.350200  15.162811  14.166755   # C_R
 450 1 5   0.000000  10.350200  14.930824  13.050752   # H_
 451 2 7   0.000000  10.350232  12.729924  14.650796   # C_3
 452 1 8   0.000000  10.350200  14.167800  15.162743   # C_R
 453 1 8   0.000000  10.350200  14.593785  16.456748   # C_R
 454 1 8   0.000000  10.350200  15.887781  16.882763   # C_R
 455 1 8   0.000000  10.350200  16.883792  15.887774   # C_R
 456 2 7   0.000000  10.350200  18.263708  16.565470   # C_3
 457 1 5   0.000000  10.350200  16.119768  17.998766   # H_
 458 1 9   0.000000  10.350200  13.878760  18.727740   # O_1
 459 1 6   0.000000  10.350200  13.529773  17.520736   # C_2
 460 1 9   0.000000  10.350200  12.322777  17.171723   # O_1
 461 2 10   0.000000  10.350258  12.692675  13.265746   # F_
 462 2 10   0.000000   9.238778  11.995520  14.954198   # F_
 463 2 10   0.000000  11.461703  11.995560  14.954236   # F_
 464 2 10   0.000000  10.350192  19.464370  15.938598   # F_
 465 2 10   0.000000  11.432224  18.364664  17.420751   # F_
 466 2 10   0.000000   9.268183  18.364658  17.420762   # F_
 467 1 6   0.000000  10.350200   7.170619   3.179581   # C_2
 468 1 9   0.000000  10.350200   8.377615   3.528595   # O_1
 469 1 9   0.000000  10.350200   6.821632   1.972577   # O_1
 470 1 8   0.000000  10.350200   6.106606   4.243569   # C_R
 471 1 8   0.000000  10.350200   4.812611   3.816555   # C_R
 472 1 5   0.000000  10.350200   4.580624   2.700552   # H_