 (written by mofun)

1088 atoms
432 bonds
840 angles
1200 dihedrals
0 impropers

10 atom types
5 bond types
9 angle types
10 dihedral types
   0.000000  26.896000 xlo xhi
   0.000000  26.896000 ylo yhi
   0.000000  26.896000 zlo zhi

Masses

 1 91.2240   # Zr3+4
 2 15.9994   # O_3
 3 12.0107   # C_3
 4 1.0079   # H_
 5 1.0079   # H_
 6 12.0107   # C_2
 7 12.0107   # C_3
 8 12.0107   # C_R
 9 14.0067   # N_3
 10 15.9994   # O_1

Pair Coeffs

 1   0.069000   2.783168 # Zr3+4
 2   0.060000   3.118146 # O_3
 3   0.105000   3.430851 # C_3
 4   0.044000   2.571134 # H_
 5 0.044000 2.571134   # H_
 6 0.105000 3.430851   # C_2
 7 0.105000 3.430851   # C_3
 8 0.105000 3.430851   # C_R
 9 0.069000 3.260689   # N_3
 10 0.060000 3.118146   # O_1

Bond Coeffs

 1 560.312976 1.423192   # C_R N_3
 2 527.945261 1.044419   # H_ N_3
 3 528.634538 1.451071   # C_3 N_3
 4 349.795899 1.514000   # C_3 C_3
 5 331.069389 1.109401   # C_3 H_

Angle Coeffs

 1 cosine/periodic  282.369526  -1  3   # C_R C_R N_3
 2 fourier  150.574599  0.317506  0.313225  0.272502   # C_R N_3 H_
 3 fourier  268.482172  0.317506  0.313225  0.272502   # C_3 N_3 C_R
 4 fourier  144.695053  0.317506  0.313225  0.272502   # C_3 N_3 H_
 5 fourier  303.297032  0.343737  0.374972  0.281246   # C_3 C_3 N_3
 6 fourier  169.780468  0.343737  0.374972  0.281246   # H_ C_3 N_3
 7 fourier  117.318683  0.343737  0.374972  0.281246   # C_3 C_3 H_
 8 fourier  75.498766  0.343737  0.374972  0.281246   # H_ C_3 H_
 9 fourier  214.211821  0.343737  0.374972  0.281246   # C_3 C_3 C_3

Dihedral Coeffs

 1 harmonic 3.368555 -1 2   # C_R C_R C_R N_3 M=4
 2 harmonic 3.368555 -1 2   # H_ C_R C_R N_3 M=4
 3 harmonic 0.125000 -1 6   # C_R C_R N_3 H_ M=4
 4 harmonic 0.125000 -1 6   # C_3 N_3 C_R C_R M=4
 5 harmonic 0.081375 1 3   # C_3 C_3 N_3 C_R M=6
 6 harmonic 0.081375 1 3   # C_R N_3 C_3 H_ M=6
 7 harmonic 0.081375 1 3   # C_3 C_3 N_3 H_ M=6
 8 harmonic 0.081375 1 3   # H_ C_3 N_3 H_ M=6
 9 harmonic 0.117722 1 3   # C_3 C_3 C_3 N_3 M=9
 10 harmonic 0.117722 1 3   # C_3 C_3 C_3 H_ M=9

Atoms

 1 1 1   0.000000   2.475508   0.000000   0.000000   # Zr3+4
 2 1 1   0.000000  24.420492   0.000000   0.000000   # Zr3+4
 3 1 1   0.000000   0.000000   2.475508   0.000000   # Zr3+4
 4 1 1   0.000000   0.000000  24.420492   0.000000   # Zr3+4
 5 1 1   0.000000   0.000000   0.000000   2.475508   # Zr3+4
 6 1 1   0.000000   0.000000   0.000000  24.420492   # Zr3+4
 7 1 1   0.000000   2.475508  13.448000  13.448000   # Zr3+4
 8 1 1   0.000000  24.420492  13.448000  13.448000   # Zr3+4
 9 1 1   0.000000   0.000000  15.923508  13.448000   # Zr3+4
 10 1 1   0.000000   0.000000  10.972492  13.448000   # Zr3+4
 11 1 1   0.000000   0.000000  13.448000  15.923508   # Zr3+4
 12 1 1   0.000000   0.000000  13.448000  10.972492   # Zr3+4
 13 1 1   0.000000  15.923508   0.000000  13.448000   # Zr3+4
 14 1 1   0.000000  10.972492   0.000000  13.448000   # Zr3+4
 15 1 1   0.000000  13.448000   2.475508  13.448000   # Zr3+4
 16 1 1   0.000000  13.448000  24.420492  13.448000   # Zr3+4
 17 1 1   0.000000  13.448000   0.000000  15.923508   # Zr3+4
 18 1 1   0.000000  13.448000   0.000000  10.972492   # Zr3+4
 19 1 1   0.000000  15.923508  13.448000   0.000000   # Zr3+4
 20 1 1   0.000000  10.972492  13.448000   0.000000   # Zr3+4
 21 1 1   0.000000  13.448000  15.923508   0.000000   # Zr3+4
 22 1 1   0.000000  13.448000  10.972492   0.000000   # Zr3+4
 23 1 1   0.000000  13.448000  13.448000   2.475508   # Zr3+4
 24 1 1   0.000000  13.448000  13.448000  24.420492   # Zr3+4
 25 1 2   0.000000   1.221078   1.221078   1.221078   # O_3
 26 1 2   0.000000  25.674922  25.674922   1.221078   # O_3
 27 1 2   0.000000  25.674922   1.221078  25.674922   # O_3
 28 1 2   0.000000   1.221078  25.674922  25.674922   # O_3
 29 1 2   0.000000   1.221078   1.221078  25.674922   # O_3
 30 1 2   0.000000  25.674922  25.674922  25.674922   # O_3
 31 1 2   0.000000   1.221078  25.674922   1.221078   # O_3
 32 1 2   0.000000  25.674922   1.221078   1.221078   # O_3
 33 1 2   0.000000   1.221078  14.669078  14.669078   # O_3
 34 1 2   0.000000  25.674922  12.226922  14.669078   # O_3
 35 1 2   0.000000  25.674922  14.669078  12.226922   # O_3
 36 1 2   0.000000   1.221078  12.226922  12.226922   # O_3
 37 1 2   0.000000   1.221078  14.669078  12.226922   # O_3
 38 1 2   0.000000  25.674922  12.226922  12.226922   # O_3
 39 1 2   0.000000   1.221078  12.226922  14.669078   # O_3
 40 1 2   0.000000  25.674922  14.669078  14.669078   # O_3
 41 1 2   0.000000  14.669078   1.221078  14.669078   # O_3
 42 1 2   0.000000  12.226922  25.674922  14.669078   # O_3
 43 1 2   0.000000  12.226922   1.221078  12.226922   # O_3
 44 1 2   0.000000  14.669078  25.674922  12.226922   # O_3
 45 1 2   0.000000  14.669078   1.221078  12.226922   # O_3
 46 1 2   0.000000  12.226922  25.674922  12.226922   # O_3
 47 1 2   0.000000  14.669078  25.674922  14.669078   # O_3
 48 1 2   0.000000  12.226922   1.221078  14.669078   # O_3
 49 1 2   0.000000  14.669078  14.669078   1.221078   # O_3
 50 1 2   0.000000  12.226922  12.226922   1.221078   # O_3
 51 1 2   0.000000  12.226922  14.669078  25.674922   # O_3
 52 1 2   0.000000  14.669078  12.226922  25.674922   # O_3
 53 1 2   0.000000  14.669078  14.669078  25.674922   # O_3
 54 1 2   0.000000  12.226922  12.226922  25.674922   # O_3
 55 1 2   0.000000  14.669078  12.226922   1.221078   # O_3
 56 1 2   0.000000  12.226922  14.669078   1.221078   # O_3
 57 1 10   0.000000   3.566410   0.000000   1.933822   # O_1
 58 1 6   0.000000   3.152211   0.000000   3.152223   # C_2
 59 1 10   0.000000   1.933811  26.896000   3.566424   # O_1
 60 1 8   0.000000   4.209211   0.000000   4.209222   # C_R
 61 1 8   0.000000   5.535211   0.000000   3.891921   # C_R
 62 1 8   0.000000   3.891912   0.000000   5.535222   # C_R
 63 1 8   0.000000   6.508812   0.000000   4.827820   # C_R
 64 1 5   0.000000   5.780010  26.896000   2.996221   # H_
 65 1 8   0.000000   4.827813  26.896000   6.508821   # C_R
 66 1 5   0.000000   2.996212  26.896000   5.780023   # H_
 67 1 8   0.000000   6.204913   0.000000   6.204920   # C_R
 68 1 8   0.000000   7.243114  26.896000   7.243120   # C_R
 69 1 5   0.000000   7.399112   0.000000   4.558920   # H_
 70 1 8   0.000000   8.620213   0.000000   6.939219   # C_R
 71 1 5   0.000000   4.558914   0.000000   7.399122   # H_
 72 1 8   0.000000   6.939215   0.000000   8.620220   # C_R
 73 1 8   0.000000   9.556114   0.000000   7.912818   # C_R
 74 2 9   0.000000   9.124804   0.224819   5.617170   # N_3
 75 1 8   0.000000   7.912815   0.000000   9.556119   # C_R
 76 1 5   0.000000   6.048915   0.000000   8.889121   # H_
 77 1 8   0.000000   9.238815  26.896000   9.238818   # C_R
 78 1 6   0.000000  10.295816  26.896000  10.295817   # C_2
 79 1 5   0.000000  10.451814   0.000000   7.668017   # H_
 80 1 5   0.000000   7.668016   0.000000  10.451819   # H_
 81 1 10   0.000000  11.514216   0.000000   9.881616   # O_1
 82 1 10   0.000000   9.881617   0.000000  11.514218   # O_1
 83 2 5   0.000000   8.961317   1.217309   5.435323   # H_
 84 2 7   0.000000  10.500672  26.755337   5.260009   # C_3
 85 2 7   0.000000  10.706264  26.707396   3.721728   # C_3
 86 2 7   0.000000  12.204455  26.470380   3.445748   # C_3
 87 2 7   0.000000  10.292838   1.133420   3.052310   # C_3
 88 2 7   0.000000   9.912726  25.545824   3.099280   # C_3
 89 2 5   0.000000  10.809847   1.984872   3.508533   # H_
 90 2 5   0.000000   9.215228   1.310880   3.132652   # H_
 91 2 5   0.000000  10.539271   1.127845   1.984260   # H_
 92 2 5   0.000000  12.815419   0.388114   3.852620   # H_
 93 2 5   0.000000  12.405940  26.410466   2.370117   # H_
 94 2 5   0.000000  12.547732  25.534565   3.901017   # H_
 95 2 5   0.000000  10.186037  24.589425   3.558971   # H_
 96 2 5   0.000000  10.111092  25.465245   2.024292   # H_
 97 2 5   0.000000   8.834258  25.677188   3.220542   # H_
 98 2 5   0.000000  10.751732  25.770342   5.675507   # H_
 99 2 5   0.000000  11.192583   0.597508   5.686076   # H_
 100 1 10   0.000000  23.329590   0.000000   1.933822   # O_1
 101 1 6   0.000000  23.743789   0.000000   3.152223   # C_2
 102 1 10   0.000000  24.962189   0.000000   3.566424   # O_1
 103 1 8   0.000000  22.686789   0.000000   4.209222   # C_R
 104 1 8   0.000000  21.360789  26.896000   3.891921   # C_R
 105 1 8   0.000000  23.004088   0.000000   5.535222   # C_R
 106 1 8   0.000000  20.387188  26.896000   4.827820   # C_R
 107 1 5   0.000000  21.115990  26.896000   2.996221   # H_
 108 1 8   0.000000  22.068187   0.000000   6.508821   # C_R
 109 1 5   0.000000  23.899788   0.000000   5.780023   # H_
 110 1 8   0.000000  20.691087   0.000000   6.204920   # C_R
 111 1 8   0.000000  19.652886  26.896000   7.243120   # C_R
 112 1 5   0.000000  19.496888  26.896000   4.558920   # H_
 113 1 8   0.000000  18.275787  26.896000   6.939219   # C_R
 114 1 5   0.000000  22.337086   0.000000   7.399122   # H_
 115 1 8   0.000000  19.956785   0.000000   8.620220   # C_R
 116 1 8   0.000000  17.339886  26.896000   7.912818   # C_R
 117 2 9   0.000000  17.771196  26.671181   5.617170   # N_3
 118 1 8   0.000000  18.983185   0.000000   9.556119   # C_R
 119 1 5   0.000000  20.847085   0.000000   8.889121   # H_
 120 1 8   0.000000  17.657185  26.896000   9.238818   # C_R
 121 1 6   0.000000  16.600184  26.896000  10.295817   # C_2
 122 1 5   0.000000  16.444186  26.896000   7.668017   # H_
 123 1 5   0.000000  19.227984   0.000000  10.451819   # H_
 124 1 10   0.000000  15.381784  26.896000   9.881616   # O_1
 125 1 10   0.000000  17.014383  26.896000  11.514218   # O_1
 126 2 5   0.000000  17.934683  25.678691   5.435323   # H_
 127 2 7   0.000000  16.395328   0.140663   5.260009   # C_3
 128 2 7   0.000000  16.189736   0.188604   3.721728   # C_3
 129 2 7   0.000000  14.691545   0.425620   3.445748   # C_3
 130 2 7   0.000000  16.603162  25.762580   3.052310   # C_3
 131 2 7   0.000000  16.983274   1.350176   3.099280   # C_3
 132 2 5   0.000000  16.086153  24.911128   3.508533   # H_
 133 2 5   0.000000  17.680772  25.585120   3.132652   # H_
 134 2 5   0.000000  16.356729  25.768155   1.984260   # H_
 135 2 5   0.000000  14.080581  26.507886   3.852620   # H_
 136 2 5   0.000000  14.490060   0.485534   2.370117   # H_
 137 2 5   0.000000  14.348268   1.361435   3.901017   # H_
 138 2 5   0.000000  16.709963   2.306575   3.558971   # H_
 139 2 5   0.000000  16.784908   1.430755   2.024292   # H_
 140 2 5   0.000000  18.061742   1.218812   3.220542   # H_
 141 2 5   0.000000  16.144268   1.125658   5.675507   # H_
 142 2 5   0.000000  15.703417  26.298492   5.686076   # H_
 143 1 10   0.000000  23.329590   0.000000  24.962178   # O_1
 144 1 6   0.000000  23.743789   0.000000  23.743777   # C_2
 145 1 10   0.000000  24.962189   0.000000  23.329576   # O_1
 146 1 8   0.000000  22.686789   0.000000  22.686778   # C_R
 147 1 8   0.000000  21.360789  26.896000  23.004079   # C_R
 148 1 8   0.000000  23.004088   0.000000  21.360778   # C_R
 149 1 8   0.000000  20.387188  26.896000  22.068180   # C_R
 150 1 5   0.000000  21.115990  26.896000  23.899779   # H_
 151 1 8   0.000000  22.068187   0.000000  20.387179   # C_R
 152 1 5   0.000000  23.899788   0.000000  21.115977   # H_
 153 1 8   0.000000  20.691087   0.000000  20.691080   # C_R
 154 1 8   0.000000  19.652886  26.896000  19.652880   # C_R
 155 1 5   0.000000  19.496888  26.896000  22.337080   # H_
 156 1 8   0.000000  18.275787  26.896000  19.956781   # C_R
 157 1 5   0.000000  22.337086   0.000000  19.496878   # H_
 158 1 8   0.000000  19.956785   0.000000  18.275780   # C_R
 159 1 8   0.000000  17.339886  26.896000  18.983182   # C_R
 160 2 9   0.000000  17.771196   0.224819  21.278830   # N_3
 161 1 8   0.000000  18.983185   0.000000  17.339881   # C_R
 162 1 5   0.000000  20.847085   0.000000  18.006879   # H_
 163 1 8   0.000000  17.657185  26.896000  17.657182   # C_R
 164 1 6   0.000000  16.600184  26.896000  16.600183   # C_2
 165 1 5   0.000000  16.444186  26.896000  19.227983   # H_
 166 1 5   0.000000  19.227984   0.000000  16.444181   # H_
 167 1 10   0.000000  15.381784  26.896000  17.014384   # O_1
 168 1 10   0.000000  17.014383  26.896000  15.381782   # O_1
 169 2 5   0.000000  17.934683   1.217309  21.460677   # H_
 170 2 7   0.000000  16.395328  26.755337  21.635991   # C_3
 171 2 7   0.000000  16.189736  26.707396  23.174272   # C_3
 172 2 7   0.000000  14.691545  26.470380  23.450252   # C_3
 173 2 7   0.000000  16.603162   1.133420  23.843690   # C_3
 174 2 7   0.000000  16.983274  25.545824  23.796720   # C_3
 175 2 5   0.000000  16.086153   1.984872  23.387467   # H_
 176 2 5   0.000000  17.680772   1.310880  23.763348   # H_
 177 2 5   0.000000  16.356729   1.127845  24.911740   # H_
 178 2 5   0.000000  14.080581   0.388114  23.043380   # H_
 179 2 5   0.000000  14.490060  26.410466  24.525883   # H_
 180 2 5   0.000000  14.348268  25.534565  22.994983   # H_
 181 2 5   0.000000  16.709963  24.589425  23.337029   # H_
 182 2 5   0.000000  16.784908  25.465245  24.871708   # H_
 183 2 5   0.000000  18.061742  25.677188  23.675458   # H_
 184 2 5   0.000000  16.144268  25.770342  21.220493   # H_
 185 2 5   0.000000  15.703417   0.597508  21.209924   # H_
 186 1 10   0.000000   3.566410   0.000000  24.962178   # O_1
 187 1 6   0.000000   3.152211   0.000000  23.743777   # C_2
 188 1 10   0.000000   1.933811   0.000000  23.329576   # O_1
 189 1 8   0.000000   4.209211   0.000000  22.686778   # C_R
 190 1 8   0.000000   5.535211   0.000000  23.004079   # C_R
 191 1 8   0.000000   3.891912   0.000000  21.360778   # C_R
 192 1 8   0.000000   6.508812   0.000000  22.068180   # C_R
 193 1 5   0.000000   5.780010   0.000000  23.899779   # H_
 194 1 8   0.000000   4.827813   0.000000  20.387179   # C_R
 195 1 5   0.000000   2.996212   0.000000  21.115977   # H_
 196 1 8   0.000000   6.204913   0.000000  20.691080   # C_R
 197 1 8   0.000000   7.243114   0.000000  19.652880   # C_R
 198 1 5   0.000000   7.399112   0.000000  22.337080   # H_
 199 1 8   0.000000   8.620213   0.000000  19.956781   # C_R
 200 1 5   0.000000   4.558914   0.000000  19.496878   # H_
 201 1 8   0.000000   6.939215   0.000000  18.275780   # C_R
 202 1 8   0.000000   9.556114   0.000000  18.983182   # C_R
 203 2 9   0.000000   9.124804  26.671181  21.278830   # N_3
 204 1 8   0.000000   7.912815   0.000000  17.339881   # C_R
 205 1 5   0.000000   6.048915   0.000000  18.006879   # H_
 206 1 8   0.000000   9.238815   0.000000  17.657182   # C_R
 207 1 6   0.000000  10.295816   0.000000  16.600183   # C_2
 208 1 5   0.000000  10.451814   0.000000  19.227983   # H_
 209 1 5   0.000000   7.668016   0.000000  16.444181   # H_
 210 1 10   0.000000  11.514216   0.000000  17.014384   # O_1
 211 1 10   0.000000   9.881617   0.000000  15.381782   # O_1
 212 2 5   0.000000   8.961317  25.678691  21.460677   # H_
 213 2 7   0.000000  10.500672   0.140663  21.635991   # C_3
 214 2 7   0.000000  10.706264   0.188604  23.174272   # C_3
 215 2 7   0.000000  12.204455   0.425620  23.450252   # C_3
 216 2 7   0.000000  10.292838  25.762580  23.843690   # C_3
 217 2 7   0.000000   9.912726   1.350176  23.796720   # C_3
 218 2 5   0.000000  10.809847  24.911128  23.387467   # H_
 219 2 5   0.000000   9.215228  25.585120  23.763348   # H_
 220 2 5   0.000000  10.539271  25.768155  24.911740   # H_
 221 2 5   0.000000  12.815419  26.507886  23.043380   # H_
 222 2 5   0.000000  12.405940   0.485534  24.525883   # H_
 223 2 5   0.000000  12.547732   1.361435  22.994983   # H_
 224 2 5   0.000000  10.186037   2.306575  23.337029   # H_
 225 2 5   0.000000  10.111092   1.430755  24.871708   # H_
 226 2 5   0.000000   8.834258   1.218812  23.675458   # H_
 227 2 5   0.000000  10.751732   1.125658  21.220493   # H_
 228 2 5   0.000000  11.192583  26.298492  21.209924   # H_
 229 1 10   0.000000   1.933822   3.566410   0.000000   # O_1
 230 1 6   0.000000   3.152223   3.152211   0.000000   # C_2
 231 1 10   0.000000   3.566424   1.933811   0.000000   # O_1
 232 1 8   0.000000   4.209222   4.209211   0.000000   # C_R
 233 1 8   0.000000   3.891921   5.535211  26.896000   # C_R
 234 1 8   0.000000   5.535222   3.891912   0.000000   # C_R
 235 1 8   0.000000   4.827820   6.508812  26.896000   # C_R
 236 1 5   0.000000   2.996221   5.780010  26.896000   # H_
 237 1 8   0.000000   6.508821   4.827813   0.000000   # C_R
 238 1 5   0.000000   5.780023   2.996212   0.000000   # H_
 239 1 8   0.000000   6.204920   6.204913   0.000000   # C_R
 240 1 8   0.000000   7.243120   7.243114  26.896000   # C_R
 241 1 5   0.000000   4.558920   7.399112  26.896000   # H_
 242 1 8   0.000000   6.939219   8.620213  26.896000   # C_R
 243 1 5   0.000000   7.399122   4.558914   0.000000   # H_
 244 1 8   0.000000   8.620220   6.939215   0.000000   # C_R
 245 1 8   0.000000   7.912818   9.556114  26.896000   # C_R
 246 2 9   0.000000   5.617170   9.124804   0.224819   # N_3
 247 1 8   0.000000   9.556119   7.912815   0.000000   # C_R
 248 1 5   0.000000   8.889121   6.048915   0.000000   # H_
 249 1 8   0.000000   9.238818   9.238815  26.896000   # C_R
 250 1 6   0.000000  10.295817  10.295816  26.896000   # C_2
 251 1 5   0.000000   7.668017  10.451814  26.896000   # H_
 252 1 5   0.000000  10.451819   7.668016   0.000000   # H_
 253 1 10   0.000000   9.881616  11.514216  26.896000   # O_1
 254 1 10   0.000000  11.514218   9.881617  26.896000   # O_1
 255 2 5   0.000000   5.435323   8.961317   1.217309   # H_
 256 2 7   0.000000   5.260009  10.500672  26.755337   # C_3
 257 2 7   0.000000   3.721728  10.706264  26.707396   # C_3
 258 2 7   0.000000   3.445748  12.204455  26.470380   # C_3
 259 2 7   0.000000   3.052310  10.292838   1.133420   # C_3
 260 2 7   0.000000   3.099280   9.912726  25.545824   # C_3
 261 2 5   0.000000   3.508533  10.809847   1.984872   # H_
 262 2 5   0.000000   3.132652   9.215228   1.310880   # H_
 263 2 5   0.000000   1.984260  10.539271   1.127845   # H_
 264 2 5   0.000000   3.852620  12.815419   0.388114   # H_
 265 2 5   0.000000   2.370117  12.405940  26.410466   # H_
 266 2 5   0.000000   3.901017  12.547732  25.534565   # H_
 267 2 5   0.000000   3.558971  10.186037  24.589425   # H_
 268 2 5   0.000000   2.024292  10.111092  25.465245   # H_
 269 2 5   0.000000   3.220542   8.834258  25.677188   # H_
 270 2 5   0.000000   5.675507  10.751732  25.770342   # H_
 271 2 5   0.000000   5.686076  11.192583   0.597508   # H_
 272 1 10   0.000000   1.933822  23.329590   0.000000   # O_1
 273 1 6   0.000000   3.152223  23.743789   0.000000   # C_2
 274 1 10   0.000000   3.566424  24.962189   0.000000   # O_1
 275 1 8   0.000000   4.209222  22.686789   0.000000   # C_R
 276 1 8   0.000000   3.891921  21.360789   0.000000   # C_R
 277 1 8   0.000000   5.535222  23.004088   0.000000   # C_R
 278 1 8   0.000000   4.827820  20.387188   0.000000   # C_R
 279 1 5   0.000000   2.996221  21.115990   0.000000   # H_
 280 1 8   0.000000   6.508821  22.068187   0.000000   # C_R
 281 1 5   0.000000   5.780023  23.899788   0.000000   # H_
 282 1 8   0.000000   6.204920  20.691087   0.000000   # C_R
 283 1 8   0.000000   7.243120  19.652886   0.000000   # C_R
 284 1 5   0.000000   4.558920  19.496888   0.000000   # H_
 285 1 8   0.000000   6.939219  18.275787   0.000000   # C_R
 286 1 5   0.000000   7.399122  22.337086   0.000000   # H_
 287 1 8   0.000000   8.620220  19.956785   0.000000   # C_R
 288 1 8   0.000000   7.912818  17.339886   0.000000   # C_R
 289 2 9   0.000000   5.617170  17.771196  26.671181   # N_3
 290 1 8   0.000000   9.556119  18.983185   0.000000   # C_R
 291 1 5   0.000000   8.889121  20.847085   0.000000   # H_
 292 1 8   0.000000   9.238818  17.657185   0.000000   # C_R
 293 1 6   0.000000  10.295817  16.600184   0.000000   # C_2
 294 1 5   0.000000   7.668017  16.444186   0.000000   # H_
 295 1 5   0.000000  10.451819  19.227984   0.000000   # H_
 296 1 10   0.000000   9.881616  15.381784   0.000000   # O_1
 297 1 10   0.000000  11.514218  17.014383   0.000000   # O_1
 298 2 5   0.000000   5.435323  17.934683  25.678691   # H_
 299 2 7   0.000000   5.260009  16.395328   0.140663   # C_3
 300 2 7   0.000000   3.721728  16.189736   0.188604   # C_3
 301 2 7   0.000000   3.445748  14.691545   0.425620   # C_3
 302 2 7   0.000000   3.052310  16.603162  25.762580   # C_3
 303 2 7   0.000000   3.099280  16.983274   1.350176   # C_3
 304 2 5   0.000000   3.508533  16.086153  24.911128   # H_
 305 2 5   0.000000   3.132652  17.680772  25.585120   # H_
 306 2 5   0.000000   1.984260  16.356729  25.768155   # H_
 307 2 5   0.000000   3.852620  14.080581  26.507886   # H_
 308 2 5   0.000000   2.370117  14.490060   0.485534   # H_
 309 2 5   0.000000   3.901017  14.348268   1.361435   # H_
 310 2 5   0.000000   3.558971  16.709963   2.306575   # H_
 311 2 5   0.000000   2.024292  16.784908   1.430755   # H_
 312 2 5   0.000000   3.220542  18.061742   1.218812   # H_
 313 2 5   0.000000   5.675507  16.144268   1.125658   # H_
 314 2 5   0.000000   5.686076  15.703417  26.298492   # H_
 315 1 10   0.000000  24.962178  23.329590   0.000000   # O_1
 316 1 6   0.000000  23.743777  23.743789   0.000000   # C_2
 317 1 10   0.000000  23.329576  24.962189   0.000000   # O_1
 318 1 8   0.000000  22.686778  22.686789   0.000000   # C_R
 319 1 8   0.000000  23.004079  21.360789  26.896000   # C_R
 320 1 8   0.000000  21.360778  23.004088   0.000000   # C_R
 321 1 8   0.000000  22.068180  20.387188  26.896000   # C_R
 322 1 5   0.000000  23.899779  21.115990  26.896000   # H_
 323 1 8   0.000000  20.387179  22.068187   0.000000   # C_R
 324 1 5   0.000000  21.115977  23.899788   0.000000   # H_
 325 1 8   0.000000  20.691080  20.691087   0.000000   # C_R
 326 1 8   0.000000  19.652880  19.652886  26.896000   # C_R
 327 1 5   0.000000  22.337080  19.496888  26.896000   # H_
 328 1 8   0.000000  19.956781  18.275787  26.896000   # C_R
 329 1 5   0.000000  19.496878  22.337086   0.000000   # H_
 330 1 8   0.000000  18.275780  19.956785   0.000000   # C_R
 331 1 8   0.000000  18.983182  17.339886  26.896000   # C_R
 332 2 9   0.000000  21.278830  17.771196   0.224819   # N_3
 333 1 8   0.000000  17.339881  18.983185   0.000000   # C_R
 334 1 5   0.000000  18.006879  20.847085   0.000000   # H_
 335 1 8   0.000000  17.657182  17.657185  26.896000   # C_R
 336 1 6   0.000000  16.600183  16.600184  26.896000   # C_2
 337 1 5   0.000000  19.227983  16.444186  26.896000   # H_
 338 1 5   0.000000  16.444181  19.227984   0.000000   # H_
 339 1 10   0.000000  17.014384  15.381784  26.896000   # O_1
 340 1 10   0.000000  15.381782  17.014383   0.000000   # O_1
 341 2 5   0.000000  21.460677  17.934683   1.217309   # H_
 342 2 7   0.000000  21.635991  16.395328  26.755337   # C_3
 343 2 7   0.000000  23.174272  16.189736  26.707396   # C_3
 344 2 7   0.000000  23.450252  14.691545  26.470380   # C_3
 345 2 7   0.000000  23.843690  16.603162   1.133420   # C_3
 346 2 7   0.000000  23.796720  16.983274  25.545824   # C_3
 347 2 5   0.000000  23.387467  16.086153   1.984872   # H_
 348 2 5   0.000000  23.763348  17.680772   1.310880   # H_
 349 2 5   0.000000  24.911740  16.356729   1.127845   # H_
 350 2 5   0.000000  23.043380  14.080581   0.388114   # H_
 351 2 5   0.000000  24.525883  14.490060  26.410466   # H_
 352 2 5   0.000000  22.994983  14.348268  25.534565   # H_
 353 2 5   0.000000  23.337029  16.709963  24.589425   # H_
 354 2 5   0.000000  24.871708  16.784908  25.465245   # H_
 355 2 5   0.000000  23.675458  18.061742  25.677188   # H_
 356 2 5   0.000000  21.220493  16.144268  25.770342   # H_
 357 2 5   0.000000  21.209924  15.703417   0.597508   # H_
 358 1 10   0.000000  24.962178   3.566410   0.000000   # O_1
 359 1 6   0.000000  23.743777   3.152211   0.000000   # C_2
 360 1 10   0.000000  23.329576   1.933811   0.000000   # O_1
 361 1 8   0.000000  22.686778   4.209211   0.000000   # C_R
 362 1 8   0.000000  23.004079   5.535211   0.000000   # C_R
 363 1 8   0.000000  21.360778   3.891912   0.000000   # C_R
 364 1 8   0.000000  22.068180   6.508812   0.000000   # C_R
 365 1 5   0.000000  23.899779   5.780010   0.000000   # H_
 366 1 8   0.000000  20.387179   4.827813   0.000000   # C_R
 367 1 5   0.000000  21.115977   2.996212   0.000000   # H_
 368 1 8   0.000000  20.691080   6.204913   0.000000   # C_R
 369 1 8   0.000000  19.652880   7.243114   0.000000   # C_R
 370 1 5   0.000000  22.337080   7.399112   0.000000   # H_
 371 1 8   0.000000  19.956781   8.620213   0.000000   # C_R
 372 1 5   0.000000  19.496878   4.558914   0.000000   # H_
 373 1 8   0.000000  18.275780   6.939215   0.000000   # C_R
 374 1 8   0.000000  18.983182   9.556114   0.000000   # C_R
 375 2 9   0.000000  21.278830   9.124804  26.671181   # N_3
 376 1 8   0.000000  17.339881   7.912815   0.000000   # C_R
 377 1 5   0.000000  18.006879   6.048915   0.000000   # H_
 378 1 8   0.000000  17.657182   9.238815   0.000000   # C_R
 379 1 6   0.000000  16.600183  10.295816   0.000000   # C_2
 380 1 5   0.000000  19.227983  10.451814   0.000000   # H_
 381 1 5   0.000000  16.444181   7.668016   0.000000   # H_
 382 1 10   0.000000  17.014384  11.514216   0.000000   # O_1
 383 1 10   0.000000  15.381782   9.881617   0.000000   # O_1
 384 2 5   0.000000  21.460677   8.961317  25.678691   # H_
 385 2 7   0.000000  21.635991  10.500672   0.140663   # C_3
 386 2 7   0.000000  23.174272  10.706264   0.188604   # C_3
 387 2 7   0.000000  23.450252  12.204455   0.425620   # C_3
 388 2 7   0.000000  23.843690  10.292838  25.762580   # C_3
 389 2 7   0.000000  23.796720   9.912726   1.350176   # C_3
 390 2 5   0.000000  23.387467  10.809847  24.911128   # H_
 391 2 5   0.000000  23.763348   9.215228  25.585120   # H_
 392 2 5   0.000000  24.911740  10.539271  25.768155   # H_
 393 2 5   0.000000  23.043380  12.815419  26.507886   # H_
 394 2 5   0.000000  24.525883  12.405940   0.485534   # H_
 395 2 5   0.000000  22.994983  12.547732   1.361435   # H_
 396 2 5   0.000000  23.337029  10.186037   2.306575   # H_
 397 2 5   0.000000  24.871708  10.111092   1.430755   # H_
 398 2 5   0.000000  23.675458   8.834258   1.218812   # H_
 399 2 5   0.000000  21.220493  10.751732   1.125658   # H_
 400 2 5   0.000000  21.209924  11.192583  26.298492   # H_
 401 1 10   0.000000   0.000000   1.933822   3.566410   # O_1
 402 1 6   0.000000   0.000000   3.152223   3.152211   # C_2
 403 1 10   0.000000   0.000000   3.566424   1.933811   # O_1
 404 1 8   0.000000   0.000000   4.209222   4.209211   # C_R
 405 1 8   0.000000   0.000000   3.891921   5.535211   # C_R
 406 1 8   0.000000   0.000000   5.535222   3.891912   # C_R
 407 1 8   0.000000   0.000000   4.827820   6.508812   # C_R
 408 1 5   0.000000   0.000000   2.996221   5.780010   # H_
 409 1 8   0.000000   0.000000   6.508821   4.827813   # C_R
 410 1 5   0.000000   0.000000   5.780023   2.996212   # H_
 411 1 8   0.000000   0.000000   6.204920   6.204913   # C_R
 412 1 8   0.000000   0.000000   7.243120   7.243114   # C_R
 413 1 5   0.000000   0.000000   4.558920   7.399112   # H_
 414 1 8   0.000000   0.000000   6.939219   8.620213   # C_R
 415 1 5   0.000000   0.000000   7.399122   4.558914   # H_
 416 1 8   0.000000   0.000000   8.620220   6.939215   # C_R
 417 1 8   0.000000   0.000000   7.912818   9.556114   # C_R
 418 2 9   0.000000   0.224819   5.617170   9.124804   # N_3
 419 1 8   0.000000   0.000000   9.556119   7.912815   # C_R
 420 1 5   0.000000   0.000000   8.889121   6.048915   # H_
 421 1 8   0.000000   0.000000   9.238818   9.238815   # C_R
 422 1 6   0.000000   0.000000  10.295817  10.295816   # C_2
 423 1 5   0.000000   0.000000   7.668017  10.451814   # H_
 424 1 5   0.000000   0.000000  10.451819   7.668016   # H_
 425 1 10   0.000000   0.000000   9.881616  11.514216   # O_1
 426 1 10   0.000000   0.000000  11.514218   9.881617   # O_1
 427 2 5   0.000000   1.217309   5.435323   8.961317   # H_
 428 2 7   0.000000  26.755337   5.260009  10.500672   # C_3
 429 2 7   0.000000  26.707396   3.721728  10.706264   # C_3
 430 2 7   0.000000  26.470380   3.445748  12.204455   # C_3
 431 2 7   0.000000   1.133420   3.052310  10.292838   # C_3
 432 2 7   0.000000  25.545824   3.099280   9.912726   # C_3
 433 2 5   0.000000   1.984872   3.508533  10.809847   # H_
 434 2 5   0.000000   1.310880   3.132652   9.215228   # H_
 435 2 5   0.000000   1.127845   1.984260  10.539271   # H_
 436 2 5   0.000000   0.388114   3.852620  12.815419   # H_
 437 2 5   0.000000  26.410466   2.370117  12.405940   # H_
 438 2 5   0.000000  25.534565   3.901017  12.547732   # H_
 439 2 5   0.000000  24.589425   3.558971  10.186037   # H_
 440 2 5   0.000000  25.465245   2.024292  10.111092   # H_
 441 2 5   0.000000  25.677188   3.220542   8.834258   # H_
 442 2 5   0.000000  25.770342   5.675507  10.751732   # H_
 443 2 5   0.000000   0.597508   5.686076  11.192583   # H_
 444 1 10   0.000000   0.000000   1.933822  23.329590   # O_1
 445 1 6   0.000000   0.000000   3.152223  23.743789   # C_2
 446 1 10   0.000000   0.000000   3.566424  24.962189   # O_1
 447 1 8   0.000000   0.000000   4.209222  22.686789   # C_R
 448 1 8   0.000000   0.000000   3.891921  21.360789   # C_R
 449 1 8   0.000000   0.000000   5.535222  23.004088   # C_R
 450 1 8   0.000000   0.000000   4.827820  20.387188   # C_R
 451 1 5   0.000000   0.000000   2.996221  21.115990   # H_
 452 1 8   0.000000   0.000000   6.508821  22.068187   # C_R
 453 1 5   0.000000   0.000000   5.780023  23.899788   # H_
 454 1 8   0.000000   0.000000   6.204920  20.691087   # C_R
 455 1 8   0.000000   0.000000   7.243120  19.652886   # C_R
 456 1 5   0.000000   0.000000   4.558920  19.496888   # H_
 457 1 8   0.000000   0.000000   6.939219  18.275787   # C_R
 458 1 5   0.000000   0.000000   7.399122  22.337086   # H_
 459 1 8   0.000000   0.000000   8.620220  19.956785   # C_R
 460 1 8   0.000000   0.000000   7.912818  17.339886   # C_R
 461 2 9   0.000000  26.671181   5.617170  17.771196   # N_3