 (written by mofun)

1104 atoms
720 bonds
1392 angles
1968 dihedrals
0 impropers

10 atom types
5 bond types
9 angle types
14 dihedral types
   0.000000  20.700400 xlo xhi
   0.000000  20.700400 ylo yhi
   0.000000  20.700400 zlo zhi

Masses

 1 91.2240   # Zr3+4
 2 15.9994   # O_3
 3 12.0107   # C_3
 4 1.0079   # H_
 5 1.0079   # H_
 6 12.0107   # C_2
 7 12.0107   # C_3
 8 12.0107   # C_R
 9 14.0067   # N_3
 10 15.9994   # O_1

Pair Coeffs

 1   0.069000   2.783168 # Zr3+4
 2   0.060000   3.118146 # O_3
 3   0.105000   3.430851 # C_3
 4   0.044000   2.571134 # H_
 5 0.044000 2.571134   # H_
 6 0.105000 3.430851   # C_2
 7 0.105000 3.430851   # C_3
 8 0.105000 3.430851   # C_R
 9 0.069000 3.260689   # N_3
 10 0.060000 3.118146   # O_1

Bond Coeffs

 1 560.312976 1.423192   # C_R N_3
 2 527.945261 1.044419   # H_ N_3
 3 528.634538 1.451071   # C_3 N_3
 4 331.069389 1.109401   # C_3 H_
 5 349.795899 1.514000   # C_3 C_3

Angle Coeffs

 1 cosine/periodic  282.369526  -1  3   # C_R C_R N_3
 2 fourier  268.482172  0.317506  0.313225  0.272502   # C_3 N_3 C_R
 3 fourier  150.574599  0.317506  0.313225  0.272502   # C_R N_3 H_
 4 fourier  144.695053  0.317506  0.313225  0.272502   # C_3 N_3 H_
 5 fourier  169.780468  0.343737  0.374972  0.281246   # H_ C_3 N_3
 6 fourier  303.297032  0.343737  0.374972  0.281246   # C_3 C_3 N_3
 7 fourier  75.498766  0.343737  0.374972  0.281246   # H_ C_3 H_
 8 fourier  117.318683  0.343737  0.374972  0.281246   # C_3 C_3 H_
 9 fourier  214.211821  0.343737  0.374972  0.281246   # C_3 C_3 C_3

Dihedral Coeffs

 1 harmonic 3.368555 -1 2   # H_ C_R C_R N_3 M=4
 2 harmonic 3.368555 -1 2   # C_R C_R C_R N_3 M=4
 3 harmonic 3.368555 -1 2   # C_2 C_R C_R N_3 M=4
 4 harmonic 0.125000 -1 6   # C_3 N_3 C_R C_R M=4
 5 harmonic 0.125000 -1 6   # C_R C_R N_3 H_ M=4
 6 harmonic 0.081375 1 3   # C_R N_3 C_3 H_ M=6
 7 harmonic 0.081375 1 3   # C_3 C_3 N_3 C_R M=6
 8 harmonic 0.081375 1 3   # H_ C_3 N_3 H_ M=6
 9 harmonic 0.081375 1 3   # C_3 C_3 N_3 H_ M=6
 10 harmonic 0.117722 1 3   # H_ C_3 C_3 N_3 M=9
 11 harmonic 0.117722 1 3   # C_3 C_3 C_3 N_3 M=9
 12 harmonic 0.117722 1 3   # H_ C_3 C_3 H_ M=9
 13 harmonic 0.117722 1 3   # C_3 C_3 C_3 H_ M=9
 14 harmonic 0.117722 1 3   # C_3 C_3 C_3 C_3 M=9

Atoms

 1 1 1   0.000000   2.481771   0.000000   0.000000   # Zr3+4
 2 1 1   0.000000   2.481771  10.350200  10.350200   # Zr3+4
 3 1 1   0.000000  12.831971   0.000000  10.350200   # Zr3+4
 4 1 1   0.000000  12.831971  10.350200   0.000000   # Zr3+4
 5 1 1   0.000000  18.218629   0.000000   0.000000   # Zr3+4
 6 1 1   0.000000  18.218629  10.350200  10.350200   # Zr3+4
 7 1 1   0.000000   7.868429   0.000000  10.350200   # Zr3+4
 8 1 1   0.000000   7.868429  10.350200   0.000000   # Zr3+4
 9 1 1   0.000000   0.000000   2.481771   0.000000   # Zr3+4
 10 1 1   0.000000   0.000000  12.831971  10.350200   # Zr3+4
 11 1 1   0.000000  10.350200   2.481771  10.350200   # Zr3+4
 12 1 1   0.000000  10.350200  12.831971   0.000000   # Zr3+4
 13 1 1   0.000000   0.000000  18.218629   0.000000   # Zr3+4
 14 1 1   0.000000   0.000000   7.868429  10.350200   # Zr3+4
 15 1 1   0.000000  10.350200  18.218629  10.350200   # Zr3+4
 16 1 1   0.000000  10.350200   7.868429   0.000000   # Zr3+4
 17 1 1   0.000000   0.000000   0.000000   2.481771   # Zr3+4
 18 1 1   0.000000   0.000000  10.350200  12.831971   # Zr3+4
 19 1 1   0.000000  10.350200   0.000000  12.831971   # Zr3+4
 20 1 1   0.000000  10.350200  10.350200   2.481771   # Zr3+4
 21 1 1   0.000000   0.000000   0.000000  18.218629   # Zr3+4
 22 1 1   0.000000   0.000000  10.350200   7.868429   # Zr3+4
 23 1 1   0.000000  10.350200   0.000000   7.868429   # Zr3+4
 24 1 1   0.000000  10.350200  10.350200  18.218629   # Zr3+4
 25 1 2   0.000000   1.161292   9.188908   9.188908   # O_3
 26 1 2   0.000000  11.511492  19.539108   9.188908   # O_3
 27 1 2   0.000000  11.511492   9.188908  19.539108   # O_3
 28 1 2   0.000000   9.188908   1.161292   9.188908   # O_3
 29 1 2   0.000000   9.188908  11.511492  19.539108   # O_3
 30 1 2   0.000000  19.539108  19.539108   1.161292   # O_3
 31 1 2   0.000000  19.539108   9.188908  11.511492   # O_3
 32 1 2   0.000000   1.161292   1.161292   1.161292   # O_3
 33 1 2   0.000000  11.511492  11.511492   1.161292   # O_3
 34 1 2   0.000000  19.539108   1.161292   1.161292   # O_3
 35 1 2   0.000000  19.539108  11.511492  11.511492   # O_3
 36 1 2   0.000000   9.188908   1.161292  11.511492   # O_3
 37 1 2   0.000000   9.188908  11.511492   1.161292   # O_3
 38 1 2   0.000000   1.161292  19.539108   1.161292   # O_3
 39 1 2   0.000000   1.161292   9.188908  11.511492   # O_3
 40 1 2   0.000000  11.511492  19.539108  11.511492   # O_3
 41 1 2   0.000000  11.511492   9.188908   1.161292   # O_3
 42 1 2   0.000000  19.539108  19.539108  19.539108   # O_3
 43 1 2   0.000000  19.539108   9.188908   9.188908   # O_3
 44 1 2   0.000000   9.188908  19.539108   9.188908   # O_3
 45 1 2   0.000000   9.188908   9.188908  19.539108   # O_3
 46 1 2   0.000000   1.161292   1.161292  19.539108   # O_3
 47 1 2   0.000000   1.161292  11.511492   9.188908   # O_3
 48 1 2   0.000000  11.511492   1.161292   9.188908   # O_3
 49 1 6   0.000000   3.179581   0.000000  17.520819   # C_2
 50 1 10   0.000000   3.528595   0.000000  18.727815   # O_1
 51 1 10   0.000000   1.972577  20.700400  17.171832   # O_1
 52 1 8   0.000000   4.243569   0.000000  16.456806   # C_R
 53 1 8   0.000000   3.816555  20.700400  15.162811   # C_R
 54 2 9   0.000000   2.468930   0.075417  14.738178   # N_3
 55 1 5   0.000000   4.580531  20.700400  13.051803   # H_
 56 1 8   0.000000   4.812543  20.700400  14.167800   # C_R
 57 1 8   0.000000   6.106548   0.000000  14.593785   # C_R
 58 1 8   0.000000   6.532563   0.000000  15.887781   # C_R
 59 1 8   0.000000   5.537574   0.000000  16.883792   # C_R
 60 1 5   0.000000   5.769587   0.000000  17.999789   # H_
 61 2 9   0.000000   7.874288  20.550166  16.294878   # N_3
 62 1 10   0.000000   8.377540   0.000000  13.878760   # O_1
 63 1 6   0.000000   7.170536   0.000000  13.529773   # C_2
 64 1 10   0.000000   6.821523  20.700400  12.322777   # O_1
 65 2 5   0.000000   1.898786   0.064979  15.611707   # H_
 66 2 7   0.000000   2.010330  19.752691  13.804684   # C_3
 67 2 5   0.000000   2.627362  19.715766  12.900649   # H_
 68 2 5   0.000000   1.012101  20.058590  13.472655   # H_
 69 2 7   0.000000   1.920588  18.371290  14.459440   # C_3
 70 2 5   0.000000   2.899990  18.086986  14.862928   # H_
 71 2 7   0.000000   1.475736  17.274064  13.489155   # C_3
 72 2 5   0.000000   1.233400  18.408710  15.313823   # H_
 73 2 5   0.000000   2.166682  17.225670  12.639403   # H_
 74 2 7   0.000000   0.055195  17.453512  12.976123   # C_3
 75 2 5   0.000000   1.539876  16.308371  14.004627   # H_
 76 2 7   0.000000   8.385326   0.600833  17.429525   # C_3
 77 2 5   0.000000   8.457851  20.661802  15.439563   # H_
 78 2 5   0.000000   7.853175   0.338876  18.348463   # H_
 79 2 7   0.000000   8.371975   2.109965  17.179915   # C_3
 80 2 5   0.000000   9.421995   0.279220  17.587661   # H_
 81 2 5   0.000000   7.341007   2.472218  17.088407   # H_
 82 2 5   0.000000   8.861294   2.323069  16.221070   # H_
 83 2 7   0.000000   9.089813   2.903592  18.274848   # C_3
 84 2 7   0.000000   8.423668   2.796177  19.638396   # C_3
 85 2 5   0.000000   9.113323   3.959426  17.980062   # H_
 86 2 5   0.000000  10.132218   2.573249  18.352408   # H_
 87 2 5   0.000000  20.665383  18.343074  12.345933   # H_
 88 2 5   0.000000  20.046254  17.541868  13.804959   # H_
 89 2 5   0.000000  20.463333  16.589503  12.370599   # H_
 90 2 5   0.000000   7.368328   3.081384  19.584686   # H_
 91 2 5   0.000000   8.919305   3.462166  20.352091   # H_
 92 2 5   0.000000   8.487890   1.779701  20.037749   # H_
 93 1 6   0.000000   3.179581  10.350200   7.170619   # C_2
 94 1 10   0.000000   3.528595  10.350200   8.377615   # O_1
 95 1 10   0.000000   1.972577  10.350200   6.821632   # O_1
 96 1 8   0.000000   4.243569  10.350200   6.106606   # C_R
 97 1 8   0.000000   3.816555  10.350200   4.812611   # C_R
 98 2 9   0.000000   2.468930  10.425617   4.387978   # N_3
 99 1 5   0.000000   4.580531  10.350200   2.701603   # H_
 100 1 8   0.000000   4.812543  10.350200   3.817600   # C_R
 101 1 8   0.000000   6.106548  10.350200   4.243585   # C_R
 102 1 8   0.000000   6.532563  10.350200   5.537581   # C_R
 103 1 8   0.000000   5.537574  10.350200   6.533592   # C_R
 104 1 5   0.000000   5.769587  10.350200   7.649589   # H_
 105 2 9   0.000000   7.874288  10.199966   5.944678   # N_3
 106 1 10   0.000000   8.377540  10.350200   3.528560   # O_1
 107 1 6   0.000000   7.170536  10.350200   3.179573   # C_2
 108 1 10   0.000000   6.821523  10.350200   1.972577   # O_1
 109 2 5   0.000000   1.898786  10.415179   5.261507   # H_
 110 2 7   0.000000   2.010330   9.402491   3.454484   # C_3
 111 2 5   0.000000   2.627362   9.365566   2.550449   # H_
 112 2 5   0.000000   1.012101   9.708390   3.122455   # H_
 113 2 7   0.000000   1.920588   8.021090   4.109240   # C_3
 114 2 5   0.000000   2.899990   7.736786   4.512728   # H_
 115 2 7   0.000000   1.475736   6.923864   3.138955   # C_3
 116 2 5   0.000000   1.233400   8.058510   4.963623   # H_
 117 2 5   0.000000   2.166682   6.875470   2.289203   # H_
 118 2 7   0.000000   0.055195   7.103312   2.625923   # C_3
 119 2 5   0.000000   1.539876   5.958171   3.654427   # H_
 120 2 7   0.000000   8.385326  10.951033   7.079325   # C_3
 121 2 5   0.000000   8.457851  10.311602   5.089363   # H_
 122 2 5   0.000000   7.853175  10.689076   7.998263   # H_
 123 2 7   0.000000   8.371975  12.460165   6.829715   # C_3
 124 2 5   0.000000   9.421995  10.629420   7.237461   # H_
 125 2 5   0.000000   7.341007  12.822418   6.738207   # H_
 126 2 5   0.000000   8.861294  12.673269   5.870870   # H_
 127 2 7   0.000000   9.089813  13.253792   7.924648   # C_3
 128 2 7   0.000000   8.423668  13.146377   9.288196   # C_3
 129 2 5   0.000000   9.113323  14.309626   7.629862   # H_
 130 2 5   0.000000  10.132218  12.923449   8.002208   # H_
 131 2 5   0.000000  20.665383   7.992874   1.995733   # H_
 132 2 5   0.000000  20.046254   7.191668   3.454759   # H_
 133 2 5   0.000000  20.463333   6.239303   2.020399   # H_
 134 2 5   0.000000   7.368328  13.431584   9.234486   # H_
 135 2 5   0.000000   8.919305  13.812366  10.001891   # H_
 136 2 5   0.000000   8.487890  12.129901   9.687549   # H_
 137 1 6   0.000000  13.529781   0.000000   7.170619   # C_2
 138 1 10   0.000000  13.878795   0.000000   8.377615   # O_1
 139 1 10   0.000000  12.322777  20.700400   6.821632   # O_1
 140 1 8   0.000000  14.593769   0.000000   6.106606   # C_R
 141 1 8   0.000000  14.166755  20.700400   4.812611   # C_R
 142 2 9   0.000000  12.819130   0.075417   4.387978   # N_3
 143 1 5   0.000000  14.930731  20.700400   2.701603   # H_
 144 1 8   0.000000  15.162743  20.700400   3.817600   # C_R
 145 1 8   0.000000  16.456748   0.000000   4.243585   # C_R
 146 1 8   0.000000  16.882763   0.000000   5.537581   # C_R
 147 1 8   0.000000  15.887774   0.000000   6.533592   # C_R
 148 1 5   0.000000  16.119787   0.000000   7.649589   # H_
 149 2 9   0.000000  18.224488  20.550166   5.944678   # N_3
 150 1 10   0.000000  18.727740   0.000000   3.528560   # O_1
 151 1 6   0.000000  17.520736   0.000000   3.179573   # C_2
 152 1 10   0.000000  17.171723  20.700400   1.972577   # O_1
 153 2 5   0.000000  12.248986   0.064979   5.261507   # H_
 154 2 7   0.000000  12.360530  19.752691   3.454484   # C_3
 155 2 5   0.000000  12.977562  19.715766   2.550449   # H_
 156 2 5   0.000000  11.362301  20.058590   3.122455   # H_
 157 2 7   0.000000  12.270788  18.371290   4.109240   # C_3
 158 2 5   0.000000  13.250190  18.086986   4.512728   # H_
 159 2 7   0.000000  11.825936  17.274064   3.138955   # C_3
 160 2 5   0.000000  11.583600  18.408710   4.963623   # H_
 161 2 5   0.000000  12.516882  17.225670   2.289203   # H_
 162 2 7   0.000000  10.405395  17.453512   2.625923   # C_3
 163 2 5   0.000000  11.890076  16.308371   3.654427   # H_
 164 2 7   0.000000  18.735526   0.600833   7.079325   # C_3
 165 2 5   0.000000  18.808051  20.661802   5.089363   # H_
 166 2 5   0.000000  18.203375   0.338876   7.998263   # H_
 167 2 7   0.000000  18.722175   2.109965   6.829715   # C_3
 168 2 5   0.000000  19.772195   0.279220   7.237461   # H_
 169 2 5   0.000000  17.691207   2.472218   6.738207   # H_
 170 2 5   0.000000  19.211494   2.323069   5.870870   # H_
 171 2 7   0.000000  19.440013   2.903592   7.924648   # C_3
 172 2 7   0.000000  18.773868   2.796177   9.288196   # C_3
 173 2 5   0.000000  19.463523   3.959426   7.629862   # H_
 174 2 5   0.000000  20.482418   2.573249   8.002208   # H_
 175 2 5   0.000000  10.315183  18.343074   1.995733   # H_
 176 2 5   0.000000   9.696054  17.541868   3.454759   # H_
 177 2 5   0.000000  10.113133  16.589503   2.020399   # H_
 178 2 5   0.000000  17.718528   3.081384   9.234486   # H_
 179 2 5   0.000000  19.269504   3.462166  10.001891   # H_
 180 2 5   0.000000  18.838090   1.779701   9.687549   # H_
 181 1 6   0.000000  13.529781  10.350200  17.520819   # C_2
 182 1 10   0.000000  13.878795  10.350200  18.727815   # O_1
 183 1 10   0.000000  12.322777  10.350200  17.171832   # O_1
 184 1 8   0.000000  14.593769  10.350200  16.456806   # C_R
 185 1 8   0.000000  14.166755  10.350200  15.162811   # C_R
 186 2 9   0.000000  12.819130  10.425617  14.738178   # N_3
 187 1 5   0.000000  14.930731  10.350200  13.051803   # H_
 188 1 8   0.000000  15.162743  10.350200  14.167800   # C_R
 189 1 8   0.000000  16.456748  10.350200  14.593785   # C_R
 190 1 8   0.000000  16.882763  10.350200  15.887781   # C_R
 191 1 8   0.000000  15.887774  10.350200  16.883792   # C_R
 192 1 5   0.000000  16.119787  10.350200  17.999789   # H_
 193 2 9   0.000000  18.224488  10.199966  16.294878   # N_3
 194 1 10   0.000000  18.727740  10.350200  13.878760   # O_1
 195 1 6   0.000000  17.520736  10.350200  13.529773   # C_2
 196 1 10   0.000000  17.171723  10.350200  12.322777   # O_1
 197 2 5   0.000000  12.248986  10.415179  15.611707   # H_
 198 2 7   0.000000  12.360530   9.402491  13.804684   # C_3
 199 2 5   0.000000  12.977562   9.365566  12.900649   # H_
 200 2 5   0.000000  11.362301   9.708390  13.472655   # H_
 201 2 7   0.000000  12.270788   8.021090  14.459440   # C_3
 202 2 5   0.000000  13.250190   7.736786  14.862928   # H_
 203 2 7   0.000000  11.825936   6.923864  13.489155   # C_3
 204 2 5   0.000000  11.583600   8.058510  15.313823   # H_
 205 2 5   0.000000  12.516882   6.875470  12.639403   # H_
 206 2 7   0.000000  10.405395   7.103312  12.976123   # C_3
 207 2 5   0.000000  11.890076   5.958171  14.004627   # H_
 208 2 7   0.000000  18.735526  10.951033  17.429525   # C_3
 209 2 5   0.000000  18.808051  10.311602  15.439563   # H_
 210 2 5   0.000000  18.203375  10.689076  18.348463   # H_
 211 2 7   0.000000  18.722175  12.460165  17.179915   # C_3
 212 2 5   0.000000  19.772195  10.629420  17.587661   # H_
 213 2 5   0.000000  17.691207  12.822418  17.088407   # H_
 214 2 5   0.000000  19.211494  12.673269  16.221070   # H_
 215 2 7   0.000000  19.440013  13.253792  18.274848   # C_3
 216 2 7   0.000000  18.773868  13.146377  19.638396   # C_3
 217 2 5   0.000000  19.463523  14.309626  17.980062   # H_
 218 2 5   0.000000  20.482418  12.923449  18.352408   # H_
 219 2 5   0.000000  10.315183   7.992874  12.345933   # H_
 220 2 5   0.000000   9.696054   7.191668  13.804959   # H_
 221 2 5   0.000000  10.113133   6.239303  12.370599   # H_
 222 2 5   0.000000  17.718528  13.431584  19.584686   # H_
 223 2 5   0.000000  19.269505  13.812366  20.352091   # H_
 224 2 5   0.000000  18.838090  12.129901  20.037749   # H_
 225 1 6   0.000000  17.520819   0.000000  17.520819   # C_2
 226 1 10   0.000000  17.171805   0.000000  18.727815   # O_1
 227 1 10   0.000000  18.727823   0.000000  17.171832   # O_1
 228 1 8   0.000000  16.456831   0.000000  16.456806   # C_R
 229 1 8   0.000000  16.883845   0.000000  15.162811   # C_R
 230 2 9   0.000000  18.231470  20.624983  14.738178   # N_3
 231 1 5   0.000000  16.119869   0.000000  13.051803   # H_
 232 1 8   0.000000  15.887857   0.000000  14.167800   # C_R
 233 1 8   0.000000  14.593852   0.000000  14.593785   # C_R
 234 1 8   0.000000  14.167837   0.000000  15.887781   # C_R
 235 1 8   0.000000  15.162826   0.000000  16.883792   # C_R
 236 1 5   0.000000  14.930813   0.000000  17.999789   # H_
 237 2 9   0.000000  12.826112   0.150234  16.294878   # N_3
 238 1 10   0.000000  12.322860   0.000000  13.878760   # O_1
 239 1 6   0.000000  13.529864   0.000000  13.529773   # C_2
 240 1 10   0.000000  13.878877   0.000000  12.322777   # O_1
 241 2 5   0.000000  18.801614  20.635421  15.611707   # H_
 242 2 7   0.000000  18.690070   0.947709  13.804684   # C_3
 243 2 5   0.000000  18.073038   0.984634  12.900649   # H_
 244 2 5   0.000000  19.688299   0.641810  13.472655   # H_
 245 2 7   0.000000  18.779812   2.329110  14.459440   # C_3
 246 2 5   0.000000  17.800410   2.613414  14.862928   # H_
 247 2 7   0.000000  19.224664   3.426336  13.489155   # C_3
 248 2 5   0.000000  19.467000   2.291690  15.313823   # H_
 249 2 5   0.000000  18.533718   3.474730  12.639403   # H_
 250 2 7   0.000000  20.645205   3.246888  12.976123   # C_3
 251 2 5   0.000000  19.160524   4.392029  14.004627   # H_
 252 2 7   0.000000  12.315074  20.099567  17.429525   # C_3
 253 2 5   0.000000  12.242549   0.038598  15.439563   # H_
 254 2 5   0.000000  12.847225  20.361524  18.348463   # H_
 255 2 7   0.000000  12.328425  18.590435  17.179915   # C_3
 256 2 5   0.000000  11.278405  20.421180  17.587661   # H_
 257 2 5   0.000000  13.359393  18.228182  17.088407   # H_
 258 2 5   0.000000  11.839106  18.377331  16.221070   # H_
 259 2 7   0.000000  11.610587  17.796808  18.274848   # C_3
 260 2 7   0.000000  12.276732  17.904223  19.638396   # C_3
 261 2 5   0.000000  11.587077  16.740974  17.980062   # H_
 262 2 5   0.000000  10.568182  18.127151  18.352408   # H_
 263 2 5   0.000000   0.035017   2.357326  12.345933   # H_
 264 2 5   0.000000   0.654146   3.158532  13.804959   # H_
 265 2 5   0.000000   0.237067   4.110897  12.370599   # H_
 266 2 5   0.000000  13.332072  17.619016  19.584686   # H_
 267 2 5   0.000000  11.781095  17.238234  20.352091   # H_
 268 2 5   0.000000  12.212510  18.920699  20.037749   # H_
 269 1 6   0.000000  17.520819  10.350200   7.170619   # C_2
 270 1 10   0.000000  17.171805  10.350200   8.377615   # O_1
 271 1 10   0.000000  18.727823  10.350200   6.821632   # O_1
 272 1 8   0.000000  16.456831  10.350200   6.106606   # C_R
 273 1 8   0.000000  16.883845  10.350200   4.812611   # C_R
 274 2 9   0.000000  18.231470  10.274783   4.387978   # N_3
 275 1 5   0.000000  16.119869  10.350200   2.701603   # H_
 276 1 8   0.000000  15.887857  10.350200   3.817600   # C_R
 277 1 8   0.000000  14.593852  10.350200   4.243585   # C_R
 278 1 8   0.000000  14.167837  10.350200   5.537581   # C_R
 279 1 8   0.000000  15.162826  10.350200   6.533592   # C_R
 280 1 5   0.000000  14.930813  10.350200   7.649589   # H_
 281 2 9   0.000000  12.826112  10.500434   5.944678   # N_3
 282 1 10   0.000000  12.322860  10.350200   3.528560   # O_1
 283 1 6   0.000000  13.529864  10.350200   3.179573   # C_2
 284 1 10   0.000000  13.878877  10.350200   1.972577   # O_1
 285 2 5   0.000000  18.801614  10.285221   5.261507   # H_
 286 2 7   0.000000  18.690070  11.297909   3.454484   # C_3
 287 2 5   0.000000  18.073038  11.334834   2.550449   # H_
 288 2 5   0.000000  19.688299  10.992010   3.122455   # H_
 289 2 7   0.000000  18.779812  12.679310   4.109240   # C_3
 290 2 5   0.000000  17.800410  12.963614   4.512728   # H_
 291 2 7   0.000000  19.224664  13.776536   3.138955   # C_3
 292 2 5   0.000000  19.467000  12.641890   4.963623   # H_
 293 2 5   0.000000  18.533718  13.824930   2.289203   # H_
 294 2 7   0.000000  20.645205  13.597088   2.625923   # C_3
 295 2 5   0.000000  19.160524  14.742229   3.654427   # H_
 296 2 7   0.000000  12.315074   9.749367   7.079325   # C_3
 297 2 5   0.000000  12.242549  10.388798   5.089363   # H_
 298 2 5   0.000000  12.847225  10.011324   7.998263   # H_
 299 2 7   0.000000  12.328425   8.240235   6.829715   # C_3
 300 2 5   0.000000  11.278405  10.070980   7.237461   # H_
 301 2 5   0.000000  13.359393   7.877982   6.738207   # H_
 302 2 5   0.000000  11.839106   8.027131   5.870870   # H_
 303 2 7   0.000000  11.610587   7.446608   7.924648   # C_3
 304 2 7   0.000000  12.276732   7.554023   9.288196   # C_3
 305 2 5   0.000000  11.587077   6.390774   7.629862   # H_
 306 2 5   0.000000  10.568182   7.776951   8.002208   # H_
 307 2 5   0.000000   0.035017  12.707526   1.995733   # H_
 308 2 5   0.000000   0.654146  13.508732   3.454759   # H_
 309 2 5   0.000000   0.237067  14.461097   2.020399   # H_
 310 2 5   0.000000  13.332072   7.268816   9.234486   # H_
 311 2 5   0.000000  11.781095   6.888034  10.001892   # H_
 312 2 5   0.000000  12.212510   8.570499   9.687549   # H_
 313 1 6   0.000000   7.170619   0.000000   7.170619   # C_2
 314 1 10   0.000000   6.821605   0.000000   8.377615   # O_1
 315 1 10   0.000000   8.377623   0.000000   6.821632   # O_1
 316 1 8   0.000000   6.106631   0.000000   6.106606   # C_R
 317 1 8   0.000000   6.533645   0.000000   4.812611   # C_R
 318 2 9   0.000000   7.881270  20.624983   4.387978   # N_3
 319 1 5   0.000000   5.769669   0.000000   2.701603   # H_
 320 1 8   0.000000   5.537657   0.000000   3.817600   # C_R
 321 1 8   0.000000   4.243652   0.000000   4.243585   # C_R
 322 1 8   0.000000   3.817637   0.000000   5.537581   # C_R
 323 1 8   0.000000   4.812626   0.000000   6.533592   # C_R
 324 1 5   0.000000   4.580613   0.000000   7.649589   # H_
 325 2 9   0.000000   2.475912   0.150234   5.944678   # N_3
 326 1 10   0.000000   1.972660   0.000000   3.528560   # O_1
 327 1 6   0.000000   3.179664   0.000000   3.179573   # C_2
 328 1 10   0.000000   3.528677   0.000000   1.972577   # O_1
 329 2 5   0.000000   8.451414  20.635421   5.261507   # H_
 330 2 7   0.000000   8.339870   0.947709   3.454484   # C_3
 331 2 5   0.000000   7.722838   0.984634   2.550449   # H_
 332 2 5   0.000000   9.338099   0.641810   3.122455   # H_
 333 2 7   0.000000   8.429612   2.329110   4.109240   # C_3
 334 2 5   0.000000   7.450210   2.613414   4.512728   # H_
 335 2 7   0.000000   8.874464   3.426336   3.138955   # C_3
 336 2 5   0.000000   9.116800   2.291690   4.963623   # H_
 337 2 5   0.000000   8.183518   3.474730   2.289203   # H_
 338 2 7   0.000000  10.295005   3.246888   2.625923   # C_3
 339 2 5   0.000000   8.810324   4.392029   3.654427   # H_
 340 2 7   0.000000   1.964874  20.099567   7.079325   # C_3
 341 2 5   0.000000   1.892349   0.038598   5.089363   # H_
 342 2 5   0.000000   2.497025  20.361524   7.998263   # H_
 343 2 7   0.000000   1.978225  18.590435   6.829715   # C_3
 344 2 5   0.000000   0.928205  20.421180   7.237461   # H_
 345 2 5   0.000000   3.009193  18.228182   6.738207   # H_
 346 2 5   0.000000   1.488906  18.377331   5.870870   # H_
 347 2 7   0.000000   1.260387  17.796808   7.924648   # C_3
 348 2 7   0.000000   1.926532  17.904223   9.288196   # C_3
 349 2 5   0.000000   1.236877  16.740974   7.629862   # H_
 350 2 5   0.000000   0.217982  18.127151   8.002208   # H_
 351 2 5   0.000000  10.385217   2.357326   1.995733   # H_
 352 2 5   0.000000  11.004346   3.158532   3.454759   # H_
 353 2 5   0.000000  10.587267   4.110897   2.020399   # H_
 354 2 5   0.000000   2.981872  17.619016   9.234486   # H_
 355 2 5   0.000000   1.430895  17.238234  10.001891   # H_
 356 2 5   0.000000   1.862310  18.920699   9.687549   # H_
 357 1 6   0.000000   7.170619  10.350200  17.520819   # C_2
 358 1 10   0.000000   6.821605  10.350200  18.727815   # O_1
 359 1 10   0.000000   8.377623  10.350200  17.171832   # O_1
 360 1 8   0.000000   6.106631  10.350200  16.456806   # C_R
 361 1 8   0.000000   6.533645  10.350200  15.162811   # C_R
 362 2 9   0.000000   7.881270  10.274783  14.738178   # N_3
 363 1 5   0.000000   5.769669  10.350200  13.051803   # H_
 364 1 8   0.000000   5.537657  10.350200  14.167800   # C_R
 365 1 8   0.000000   4.243652  10.350200  14.593785   # C_R
 366 1 8   0.000000   3.817637  10.350200  15.887781   # C_R
 367 1 8   0.000000   4.812626  10.350200  16.883792   # C_R
 368 1 5   0.000000   4.580613  10.350200  17.999789   # H_
 369 2 9   0.000000   2.475912  10.500434  16.294878   # N_3
 370 1 10   0.000000   1.972660  10.350200  13.878760   # O_1
 371 1 6   0.000000   3.179664  10.350200  13.529773   # C_2
 372 1 10   0.000000   3.528677  10.350200  12.322777   # O_1
 373 2 5   0.000000   8.451414  10.285221  15.611707   # H_
 374 2 7   0.000000   8.339870  11.297909  13.804684   # C_3
 375 2 5   0.000000   7.722838  11.334834  12.900649   # H_
 376 2 5   0.000000   9.338099  10.992010  13.472655   # H_
 377 2 7   0.000000   8.429612  12.679310  14.459440   # C_3
 378 2 5   0.000000   7.450210  12.963614  14.862928   # H_
 379 2 7   0.000000   8.874464  13.776536  13.489155   # C_3
 380 2 5   0.000000   9.116800  12.641890  15.313823   # H_
 381 2 5   0.000000   8.183518  13.824930  12.639403   # H_
 382 2 7   0.000000  10.295005  13.597088  12.976123   # C_3
 383 2 5   0.000000   8.810324  14.742229  14.004627   # H_
 384 2 7   0.000000   1.964874   9.749367  17.429525   # C_3
 385 2 5   0.000000   1.892349  10.388798  15.439563   # H_
 386 2 5   0.000000   2.497025  10.011324  18.348463   # H_
 387 2 7   0.000000   1.978225   8.240235  17.179915   # C_3
 388 2 5   0.000000   0.928205  10.070980  17.587661   # H_
 389 2 5   0.000000   3.009193   7.877982  17.088407   # H_
 390 2 5   0.000000   1.488906   8.027131  16.221070   # H_
 391 2 7   0.000000   1.260387   7.446608  18.274848   # C_3
 392 2 7   0.000000   1.926532   7.554023  19.638396   # C_3
 393 2 5   0.000000   1.236877   6.390774  17.980062   # H_
 394 2 5   0.000000   0.217982   7.776951  18.352408   # H_
 395 2 5   0.000000  10.385217  12.707526  12.345933   # H_
 396 2 5   0.000000  11.004346  13.508732  13.804959   # H_
 397 2 5   0.000000  10.587267  14.461097  12.370599   # H_
 398 2 5   0.000000   2.981872   7.268816  19.584686   # H_
 399 2 5   0.000000   1.430895   6.888034  20.352091   # H_
 400 2 5   0.000000   1.862310   8.570499  20.037749   # H_
 401 1 6   0.000000  17.520819   3.179581   0.000000   # C_2
 402 1 10   0.000000  18.727815   3.528595  20.700400   # O_1
 403 1 10   0.000000  17.171832   1.972577   0.000000   # O_1
 404 1 8   0.000000  16.456806   4.243569  20.700400   # C_R
 405 1 8   0.000000  15.162811   3.816555   0.000000   # C_R
 406 2 9   0.000000  14.738178   2.468930   0.075417   # N_3
 407 1 5   0.000000  13.051803   4.580531   0.000000   # H_
 408 1 8   0.000000  14.167800   4.812543   0.000000   # C_R
 409 1 8   0.000000  14.593785   6.106548  20.700400   # C_R
 410 1 8   0.000000  15.887781   6.532563  20.700400   # C_R
 411 1 8   0.000000  16.883792   5.537574  20.700400   # C_R
 412 1 5   0.000000  17.999789   5.769587  20.700400   # H_
 413 2 9   0.000000  16.294878   7.874288  20.550166   # N_3
 414 1 10   0.000000  13.878760   8.377540  20.700400   # O_1
 415 1 6   0.000000  13.529773   7.170536  20.700400   # C_2
 416 1 10   0.000000  12.322777   6.821523   0.000000   # O_1
 417 2 5   0.000000  15.611707   1.898786   0.064979   # H_
 418 2 7   0.000000  13.804684   2.010330  19.752691   # C_3
 419 2 5   0.000000  12.900649   2.627362  19.715766   # H_
 420 2 5   0.000000  13.472655   1.012101  20.058590   # H_
 421 2 7   0.000000  14.459440   1.920588  18.371290   # C_3
 422 2 5   0.000000  14.862928   2.899990  18.086986   # H_
 423 2 7   0.000000  13.489155   1.475736  17.274064   # C_3
 424 2 5   0.000000  15.313823   1.233400  18.408710   # H_
 425 2 5   0.000000  12.639403   2.166682  17.225670   # H_
 426 2 7   0.000000  12.976123   0.055195  17.453512   # C_3
 427 2 5   0.000000  14.004627   1.539876  16.308371   # H_
 428 2 7   0.000000  17.429525   8.385326   0.600833   # C_3
 429 2 5   0.000000  15.439563   8.457851  20.661802   # H_
 430 2 5   0.000000  18.348463   7.853175   0.338876   # H_
 431 2 7   0.000000  17.179915   8.371975   2.109965   # C_3
 432 2 5   0.000000  17.587661   9.421995   0.279220   # H_
 433 2 5   0.000000  17.088407   7.341007   2.472218   # H_
 434 2 5   0.000000  16.221070   8.861294   2.323069   # H_
 435 2 7   0.000000  18.274848   9.089813   2.903592   # C_3
 436 2 7   0.000000  19.638396   8.423668   2.796177   # C_3
 437 2 5   0.000000  17.980062   9.113323   3.959426   # H_
 438 2 5   0.000000  18.352408  10.132218   2.573249   # H_
 439 2 5   0.000000  12.345933  20.665383  18.343074   # H_
 440 2 5   0.000000  13.804959  20.046254  17.541868   # H_
 441 2 5   0.000000  12.370599  20.463333  16.589503   # H_
 442 2 5   0.000000  19.584686   7.368328   3.081384   # H_
 443 2 5   0.000000  20.352091   8.919305   3.462166   # H_
 444 2 5   0.000000  20.037749   8.487890   1.779701   # H_
 445 1 6   0.000000  17.520819  13.529781  10.350200   # C_2
 446 1 10   0.000000  18.727815  13.878795  10.350200   # O_1
 447 1 10   0.000000  17.171832  12.322777  10.350200   # O_1
 448 1 8   0.000000  16.456806  14.593769  10.350200   # C_R
 449 1 8   0.000000  15.162811  14.166755  10.350200   # C_R
 450 2 9   0.000000  14.738178  12.819130  10.425617   # N_3
 451 1 5   0.000000  13.051803  14.930731  10.350200   # H_
 452 1 8   0.000000  14.167800  15.162743  10.350200   # C_R
 453 1 8   0.000000  14.593785  16.456748  10.350200   # C_R
 454 1 8   0.000000  15.887781  16.882763  10.350200   # C_R
 455 1 8   0.000000  16.883792  15.887774  10.350200   # C_R
 456 1 5   0.000000  17.999789  16.119787  10.350200   # H_
 457 2 9   0.000000  16.294878  18.224488  10.199966   # N_3
 458 1 10   0.000000  13.878760  18.727740  10.350200   # O_1