 (written by mofun)

1304 atoms
672 bonds
1296 angles
1728 dihedrals
0 impropers

10 atom types
4 bond types
7 angle types
11 dihedral types
   0.000000  26.896000 xlo xhi
   0.000000  26.896000 ylo yhi
   0.000000  26.896000 zlo zhi

Masses

 1 91.2240   # Zr3+4
 2 15.9994   # O_3
 3 12.0107   # C_3
 4 1.0079   # H_
 5 1.0079   # H_
 6 12.0107   # C_2
 7 12.0107   # C_3
 8 12.0107   # C_R
 9 15.9994   # O_1
 10 15.9994   # O_3

Pair Coeffs

 1   0.069000   2.783168 # Zr3+4
 2   0.060000   3.118146 # O_3
 3   0.105000   3.430851 # C_3
 4   0.044000   2.571134 # H_
 5 0.044000 2.571134   # H_
 6 0.105000 3.430851   # C_2
 7 0.105000 3.430851   # C_3
 8 0.105000 3.430851   # C_R
 9 0.060000 3.118146   # O_1
 10 0.060000 3.118146   # O_3

Bond Coeffs

 1 572.510195 1.366311   # C_R O_3
 2 539.248552 1.393845   # C_3 O_3
 3 349.795899 1.514000   # C_3 C_3
 4 331.069389 1.109401   # C_3 H_

Angle Coeffs

 1 cosine/periodic  271.563462  -1  3   # C_R C_R O_3
 2 fourier  320.948910  0.300235  0.267331  0.266745   # C_3 O_3 C_R
 3 fourier  290.032745  0.343737  0.374972  0.281246   # C_3 C_3 O_3
 4 fourier  165.777838  0.343737  0.374972  0.281246   # H_ C_3 O_3
 5 fourier  117.318683  0.343737  0.374972  0.281246   # C_3 C_3 H_
 6 fourier  75.498766  0.343737  0.374972  0.281246   # H_ C_3 H_
 7 fourier  214.211821  0.343737  0.374972  0.281246   # C_3 C_3 C_3

Dihedral Coeffs

 1 harmonic 3.368555 -1 2   # C_2 C_R C_R O_3 M=4
 2 harmonic 3.368555 -1 2   # C_R C_R C_R O_3 M=4
 3 harmonic 3.368555 -1 2   # H_ C_R C_R O_3 M=4
 4 harmonic 2.500000 1 2   # C_3 O_3 C_R C_R M=2
 5 harmonic 0.032550 1 3   # C_3 C_3 O_3 C_R M=3
 6 harmonic 0.032550 1 3   # C_R O_3 C_3 H_ M=3
 7 harmonic 0.117722 1 3   # H_ C_3 C_3 O_3 M=9
 8 harmonic 0.117722 1 3   # C_3 C_3 C_3 O_3 M=9
 9 harmonic 0.117722 1 3   # H_ C_3 C_3 H_ M=9
 10 harmonic 0.117722 1 3   # C_3 C_3 C_3 H_ M=9
 11 harmonic 0.117722 1 3   # C_3 C_3 C_3 C_3 M=9

Atoms

 1 1 1   0.000000   2.475508   0.000000   0.000000   # Zr3+4
 2 1 1   0.000000  24.420492   0.000000   0.000000   # Zr3+4
 3 1 1   0.000000   0.000000   2.475508   0.000000   # Zr3+4
 4 1 1   0.000000   0.000000  24.420492   0.000000   # Zr3+4
 5 1 1   0.000000   0.000000   0.000000   2.475508   # Zr3+4
 6 1 1   0.000000   0.000000   0.000000  24.420492   # Zr3+4
 7 1 1   0.000000   2.475508  13.448000  13.448000   # Zr3+4
 8 1 1   0.000000  24.420492  13.448000  13.448000   # Zr3+4
 9 1 1   0.000000   0.000000  15.923508  13.448000   # Zr3+4
 10 1 1   0.000000   0.000000  10.972492  13.448000   # Zr3+4
 11 1 1   0.000000   0.000000  13.448000  15.923508   # Zr3+4
 12 1 1   0.000000   0.000000  13.448000  10.972492   # Zr3+4
 13 1 1   0.000000  15.923508   0.000000  13.448000   # Zr3+4
 14 1 1   0.000000  10.972492   0.000000  13.448000   # Zr3+4
 15 1 1   0.000000  13.448000   2.475508  13.448000   # Zr3+4
 16 1 1   0.000000  13.448000  24.420492  13.448000   # Zr3+4
 17 1 1   0.000000  13.448000   0.000000  15.923508   # Zr3+4
 18 1 1   0.000000  13.448000   0.000000  10.972492   # Zr3+4
 19 1 1   0.000000  15.923508  13.448000   0.000000   # Zr3+4
 20 1 1   0.000000  10.972492  13.448000   0.000000   # Zr3+4
 21 1 1   0.000000  13.448000  15.923508   0.000000   # Zr3+4
 22 1 1   0.000000  13.448000  10.972492   0.000000   # Zr3+4
 23 1 1   0.000000  13.448000  13.448000   2.475508   # Zr3+4
 24 1 1   0.000000  13.448000  13.448000  24.420492   # Zr3+4
 25 1 2   0.000000   1.221078   1.221078   1.221078   # O_3
 26 1 2   0.000000  25.674922  25.674922   1.221078   # O_3
 27 1 2   0.000000  25.674922   1.221078  25.674922   # O_3
 28 1 2   0.000000   1.221078  25.674922  25.674922   # O_3
 29 1 2   0.000000   1.221078   1.221078  25.674922   # O_3
 30 1 2   0.000000  25.674922  25.674922  25.674922   # O_3
 31 1 2   0.000000   1.221078  25.674922   1.221078   # O_3
 32 1 2   0.000000  25.674922   1.221078   1.221078   # O_3
 33 1 2   0.000000   1.221078  14.669078  14.669078   # O_3
 34 1 2   0.000000  25.674922  12.226922  14.669078   # O_3
 35 1 2   0.000000  25.674922  14.669078  12.226922   # O_3
 36 1 2   0.000000   1.221078  12.226922  12.226922   # O_3
 37 1 2   0.000000   1.221078  14.669078  12.226922   # O_3
 38 1 2   0.000000  25.674922  12.226922  12.226922   # O_3
 39 1 2   0.000000   1.221078  12.226922  14.669078   # O_3
 40 1 2   0.000000  25.674922  14.669078  14.669078   # O_3
 41 1 2   0.000000  14.669078   1.221078  14.669078   # O_3
 42 1 2   0.000000  12.226922  25.674922  14.669078   # O_3
 43 1 2   0.000000  12.226922   1.221078  12.226922   # O_3
 44 1 2   0.000000  14.669078  25.674922  12.226922   # O_3
 45 1 2   0.000000  14.669078   1.221078  12.226922   # O_3
 46 1 2   0.000000  12.226922  25.674922  12.226922   # O_3
 47 1 2   0.000000  14.669078  25.674922  14.669078   # O_3
 48 1 2   0.000000  12.226922   1.221078  14.669078   # O_3
 49 1 2   0.000000  14.669078  14.669078   1.221078   # O_3
 50 1 2   0.000000  12.226922  12.226922   1.221078   # O_3
 51 1 2   0.000000  12.226922  14.669078  25.674922   # O_3
 52 1 2   0.000000  14.669078  12.226922  25.674922   # O_3
 53 1 2   0.000000  14.669078  14.669078  25.674922   # O_3
 54 1 2   0.000000  12.226922  12.226922  25.674922   # O_3
 55 1 2   0.000000  14.669078  12.226922   1.221078   # O_3
 56 1 2   0.000000  12.226922  14.669078   1.221078   # O_3
 57 1 9   0.000000   3.566410   0.000000   1.933822   # O_1
 58 1 6   0.000000   3.152211   0.000000   3.152223   # C_2
 59 1 9   0.000000   1.933811  26.896000   3.566424   # O_1
 60 1 8   0.000000   4.209211   0.000000   4.209222   # C_R
 61 1 8   0.000000   5.535211   0.000000   3.891921   # C_R
 62 1 8   0.000000   3.891912   0.000000   5.535222   # C_R
 63 1 8   0.000000   6.508812   0.000000   4.827820   # C_R
 64 1 5   0.000000   5.780010  26.896000   2.996221   # H_
 65 1 8   0.000000   4.827813  26.896000   6.508821   # C_R
 66 2 10   0.000000   2.689085  26.382479   5.999188   # O_3
 67 1 8   0.000000   6.204913   0.000000   6.204920   # C_R
 68 1 8   0.000000   7.243114  26.896000   7.243120   # C_R
 69 1 5   0.000000   7.399112   0.000000   4.558920   # H_
 70 1 8   0.000000   8.620213   0.000000   6.939219   # C_R
 71 1 5   0.000000   4.558914   0.000000   7.399122   # H_
 72 1 8   0.000000   6.939215   0.000000   8.620220   # C_R
 73 1 8   0.000000   9.556114   0.000000   7.912818   # C_R
 74 1 5   0.000000   8.889113  26.896000   6.048918   # H_
 75 1 8   0.000000   7.912815   0.000000   9.556119   # C_R
 76 1 5   0.000000   6.048915   0.000000   8.889121   # H_
 77 1 8   0.000000   9.238815  26.896000   9.238818   # C_R
 78 1 6   0.000000  10.295816  26.896000  10.295817   # C_2
 79 2 10   0.000000  10.884038  26.879661   7.568269   # O_3
 80 1 5   0.000000   7.668016   0.000000  10.451819   # H_
 81 1 9   0.000000  11.514216   0.000000   9.881616   # O_1
 82 1 9   0.000000   9.881617   0.000000  11.514218   # O_1
 83 2 7   0.000000  11.351302   0.000355   6.228528   # C_3
 84 2 7   0.000000   1.681254   0.446931   6.298086   # C_3
 85 2 7   0.000000  12.877981  26.852948   6.315917   # C_3
 86 2 5   0.000000  11.022451   0.918195   5.730328   # H_
 87 2 5   0.000000  10.987369  26.017066   5.685229   # H_
 88 2 5   0.000000  13.232857   0.813670   6.903734   # H_
 89 2 7   0.000000  13.590089  26.815005   4.967858   # C_3
 90 2 5   0.000000  13.170225  25.966595   6.894699   # H_
 91 2 7   0.000000  13.409534   1.192260   4.158081   # C_3
 92 2 5   0.000000  13.245767  25.953727   4.384540   # H_
 93 2 5   0.000000  14.661966  26.667758   5.148550   # H_
 94 2 7   0.000000   1.199055   0.244281   7.738117   # C_3
 95 2 5   0.000000   0.824623   0.255282   5.642032   # H_
 96 2 5   0.000000   2.010898   1.479700   6.138271   # H_
 97 2 7   0.000000   0.943833  25.667364   8.083782   # C_3
 98 2 5   0.000000   0.286190   0.831641   7.890109   # H_
 99 2 5   0.000000   1.957936   0.635657   8.425799   # H_
 100 2 5   0.000000   0.288795  25.207994   7.333588   # H_
 101 2 7   0.000000   0.312629  25.511402   9.458280   # C_3
 102 2 5   0.000000   1.889425  25.112830   8.070515   # H_
 103 2 5   0.000000  26.207079  25.951720   9.479871   # H_
 104 2 5   0.000000   0.920647  25.996250  10.228691   # H_
 105 2 5   0.000000   0.221540  24.450985   9.715360   # H_
 106 2 5   0.000000  12.371591   1.316428   3.836468   # H_
 107 2 5   0.000000  14.035444   1.157959   3.260681   # H_
 108 2 5   0.000000  13.700501   2.072931   4.739662   # H_
 109 1 9   0.000000  23.329590   0.000000   1.933822   # O_1
 110 1 6   0.000000  23.743789   0.000000   3.152223   # C_2
 111 1 9   0.000000  24.962189   0.000000   3.566424   # O_1
 112 1 8   0.000000  22.686789   0.000000   4.209222   # C_R
 113 1 8   0.000000  21.360789  26.896000   3.891921   # C_R
 114 1 8   0.000000  23.004088   0.000000   5.535222   # C_R
 115 1 8   0.000000  20.387188  26.896000   4.827820   # C_R
 116 1 5   0.000000  21.115990  26.896000   2.996221   # H_
 117 1 8   0.000000  22.068187   0.000000   6.508821   # C_R
 118 2 10   0.000000  24.206915   0.513521   5.999188   # O_3
 119 1 8   0.000000  20.691087   0.000000   6.204920   # C_R
 120 1 8   0.000000  19.652886  26.896000   7.243120   # C_R
 121 1 5   0.000000  19.496888  26.896000   4.558920   # H_
 122 1 8   0.000000  18.275787  26.896000   6.939219   # C_R
 123 1 5   0.000000  22.337086   0.000000   7.399122   # H_
 124 1 8   0.000000  19.956785   0.000000   8.620220   # C_R
 125 1 8   0.000000  17.339886  26.896000   7.912818   # C_R
 126 1 5   0.000000  18.006887  26.896000   6.048918   # H_
 127 1 8   0.000000  18.983185   0.000000   9.556119   # C_R
 128 1 5   0.000000  20.847085   0.000000   8.889121   # H_
 129 1 8   0.000000  17.657185  26.896000   9.238818   # C_R
 130 1 6   0.000000  16.600184  26.896000  10.295817   # C_2
 131 2 10   0.000000  16.011962   0.016339   7.568269   # O_3
 132 1 5   0.000000  19.227984   0.000000  10.451819   # H_
 133 1 9   0.000000  15.381784  26.896000   9.881616   # O_1
 134 1 9   0.000000  17.014383  26.896000  11.514218   # O_1
 135 2 7   0.000000  15.544698  26.895645   6.228528   # C_3
 136 2 7   0.000000  25.214746  26.449069   6.298086   # C_3
 137 2 7   0.000000  14.018019   0.043052   6.315917   # C_3
 138 2 5   0.000000  15.873549  25.977805   5.730328   # H_
 139 2 5   0.000000  15.908631   0.878934   5.685229   # H_
 140 2 5   0.000000  13.663143  26.082330   6.903734   # H_
 141 2 7   0.000000  13.305911   0.080995   4.967858   # C_3
 142 2 5   0.000000  13.725775   0.929405   6.894699   # H_
 143 2 7   0.000000  13.486466  25.703740   4.158081   # C_3
 144 2 5   0.000000  13.650233   0.942273   4.384540   # H_
 145 2 5   0.000000  12.234034   0.228242   5.148550   # H_
 146 2 7   0.000000  25.696945  26.651719   7.738117   # C_3
 147 2 5   0.000000  26.071377  26.640718   5.642032   # H_
 148 2 5   0.000000  24.885102  25.416300   6.138271   # H_
 149 2 7   0.000000  25.952167   1.228636   8.083782   # C_3
 150 2 5   0.000000  26.609810  26.064359   7.890109   # H_
 151 2 5   0.000000  24.938064  26.260343   8.425799   # H_
 152 2 5   0.000000  26.607205   1.688006   7.333588   # H_
 153 2 7   0.000000  26.583371   1.384598   9.458280   # C_3
 154 2 5   0.000000  25.006575   1.783170   8.070515   # H_
 155 2 5   0.000000   0.688921   0.944280   9.479871   # H_
 156 2 5   0.000000  25.975353   0.899750  10.228691   # H_
 157 2 5   0.000000  26.674460   2.445015   9.715360   # H_
 158 2 5   0.000000  14.524409  25.579572   3.836468   # H_
 159 2 5   0.000000  12.860556  25.738041   3.260681   # H_
 160 2 5   0.000000  13.195499  24.823069   4.739662   # H_
 161 1 9   0.000000  23.329590   0.000000  24.962178   # O_1
 162 1 6   0.000000  23.743789   0.000000  23.743777   # C_2
 163 1 9   0.000000  24.962189   0.000000  23.329576   # O_1
 164 1 8   0.000000  22.686789   0.000000  22.686778   # C_R
 165 1 8   0.000000  21.360789  26.896000  23.004079   # C_R
 166 1 8   0.000000  23.004088   0.000000  21.360778   # C_R
 167 1 8   0.000000  20.387188  26.896000  22.068180   # C_R
 168 1 5   0.000000  21.115990  26.896000  23.899779   # H_
 169 1 8   0.000000  22.068187   0.000000  20.387179   # C_R
 170 2 10   0.000000  24.206915  26.382479  20.896812   # O_3
 171 1 8   0.000000  20.691087   0.000000  20.691080   # C_R
 172 1 8   0.000000  19.652886  26.896000  19.652880   # C_R
 173 1 5   0.000000  19.496888  26.896000  22.337080   # H_
 174 1 8   0.000000  18.275787  26.896000  19.956781   # C_R
 175 1 5   0.000000  22.337086   0.000000  19.496878   # H_
 176 1 8   0.000000  19.956785   0.000000  18.275780   # C_R
 177 1 8   0.000000  17.339886  26.896000  18.983182   # C_R
 178 1 5   0.000000  18.006887  26.896000  20.847082   # H_
 179 1 8   0.000000  18.983185   0.000000  17.339881   # C_R
 180 1 5   0.000000  20.847085   0.000000  18.006879   # H_
 181 1 8   0.000000  17.657185  26.896000  17.657182   # C_R
 182 1 6   0.000000  16.600184  26.896000  16.600183   # C_2
 183 2 10   0.000000  16.011962  26.879661  19.327731   # O_3
 184 1 5   0.000000  19.227984   0.000000  16.444181   # H_
 185 1 9   0.000000  15.381784  26.896000  17.014384   # O_1
 186 1 9   0.000000  17.014383  26.896000  15.381782   # O_1
 187 2 7   0.000000  15.544698   0.000355  20.667472   # C_3
 188 2 7   0.000000  25.214746   0.446931  20.597914   # C_3
 189 2 7   0.000000  14.018019  26.852948  20.580083   # C_3
 190 2 5   0.000000  15.873549   0.918195  21.165672   # H_
 191 2 5   0.000000  15.908631  26.017066  21.210771   # H_
 192 2 5   0.000000  13.663143   0.813670  19.992266   # H_
 193 2 7   0.000000  13.305911  26.815005  21.928142   # C_3
 194 2 5   0.000000  13.725775  25.966595  20.001301   # H_
 195 2 7   0.000000  13.486466   1.192260  22.737919   # C_3
 196 2 5   0.000000  13.650233  25.953727  22.511460   # H_
 197 2 5   0.000000  12.234034  26.667758  21.747450   # H_
 198 2 7   0.000000  25.696945   0.244281  19.157883   # C_3
 199 2 5   0.000000  26.071377   0.255282  21.253968   # H_
 200 2 5   0.000000  24.885102   1.479700  20.757729   # H_
 201 2 7   0.000000  25.952167  25.667364  18.812218   # C_3
 202 2 5   0.000000  26.609810   0.831641  19.005891   # H_
 203 2 5   0.000000  24.938064   0.635657  18.470201   # H_
 204 2 5   0.000000  26.607205  25.207994  19.562412   # H_
 205 2 7   0.000000  26.583371  25.511402  17.437720   # C_3
 206 2 5   0.000000  25.006575  25.112830  18.825485   # H_
 207 2 5   0.000000   0.688921  25.951720  17.416129   # H_
 208 2 5   0.000000  25.975353  25.996250  16.667309   # H_
 209 2 5   0.000000  26.674460  24.450985  17.180640   # H_
 210 2 5   0.000000  14.524409   1.316428  23.059532   # H_
 211 2 5   0.000000  12.860556   1.157959  23.635319   # H_
 212 2 5   0.000000  13.195499   2.072931  22.156338   # H_
 213 1 9   0.000000   3.566410   0.000000  24.962178   # O_1
 214 1 6   0.000000   3.152211   0.000000  23.743777   # C_2
 215 1 9   0.000000   1.933811   0.000000  23.329576   # O_1
 216 1 8   0.000000   4.209211   0.000000  22.686778   # C_R
 217 1 8   0.000000   5.535211   0.000000  23.004079   # C_R
 218 1 8   0.000000   3.891912   0.000000  21.360778   # C_R
 219 1 8   0.000000   6.508812   0.000000  22.068180   # C_R
 220 1 5   0.000000   5.780010   0.000000  23.899779   # H_
 221 1 8   0.000000   4.827813   0.000000  20.387179   # C_R
 222 2 10   0.000000   2.689085   0.513521  20.896812   # O_3
 223 1 8   0.000000   6.204913   0.000000  20.691080   # C_R
 224 1 8   0.000000   7.243114   0.000000  19.652880   # C_R
 225 1 5   0.000000   7.399112   0.000000  22.337080   # H_
 226 1 8   0.000000   8.620213   0.000000  19.956781   # C_R
 227 1 5   0.000000   4.558914   0.000000  19.496878   # H_
 228 1 8   0.000000   6.939215   0.000000  18.275780   # C_R
 229 1 8   0.000000   9.556114   0.000000  18.983182   # C_R
 230 1 5   0.000000   8.889113   0.000000  20.847082   # H_
 231 1 8   0.000000   7.912815   0.000000  17.339881   # C_R
 232 1 5   0.000000   6.048915   0.000000  18.006879   # H_
 233 1 8   0.000000   9.238815   0.000000  17.657182   # C_R
 234 1 6   0.000000  10.295816   0.000000  16.600183   # C_2
 235 2 10   0.000000  10.884038   0.016339  19.327731   # O_3
 236 1 5   0.000000   7.668016   0.000000  16.444181   # H_
 237 1 9   0.000000  11.514216   0.000000  17.014384   # O_1
 238 1 9   0.000000   9.881617   0.000000  15.381782   # O_1
 239 2 7   0.000000  11.351302  26.895645  20.667472   # C_3
 240 2 7   0.000000   1.681254  26.449069  20.597914   # C_3
 241 2 7   0.000000  12.877981   0.043052  20.580083   # C_3
 242 2 5   0.000000  11.022451  25.977805  21.165672   # H_
 243 2 5   0.000000  10.987369   0.878934  21.210771   # H_
 244 2 5   0.000000  13.232857  26.082330  19.992266   # H_
 245 2 7   0.000000  13.590089   0.080995  21.928142   # C_3
 246 2 5   0.000000  13.170225   0.929405  20.001301   # H_
 247 2 7   0.000000  13.409534  25.703740  22.737919   # C_3
 248 2 5   0.000000  13.245767   0.942273  22.511460   # H_
 249 2 5   0.000000  14.661966   0.228242  21.747450   # H_
 250 2 7   0.000000   1.199055  26.651719  19.157883   # C_3
 251 2 5   0.000000   0.824623  26.640718  21.253968   # H_
 252 2 5   0.000000   2.010898  25.416300  20.757729   # H_
 253 2 7   0.000000   0.943833   1.228636  18.812218   # C_3
 254 2 5   0.000000   0.286190  26.064359  19.005891   # H_
 255 2 5   0.000000   1.957936  26.260343  18.470201   # H_
 256 2 5   0.000000   0.288795   1.688006  19.562412   # H_
 257 2 7   0.000000   0.312629   1.384598  17.437720   # C_3
 258 2 5   0.000000   1.889425   1.783170  18.825485   # H_
 259 2 5   0.000000  26.207079   0.944280  17.416129   # H_
 260 2 5   0.000000   0.920647   0.899750  16.667309   # H_
 261 2 5   0.000000   0.221540   2.445015  17.180640   # H_
 262 2 5   0.000000  12.371591  25.579572  23.059532   # H_
 263 2 5   0.000000  14.035444  25.738041  23.635319   # H_
 264 2 5   0.000000  13.700501  24.823069  22.156338   # H_
 265 1 9   0.000000   1.933822   3.566410   0.000000   # O_1
 266 1 6   0.000000   3.152223   3.152211   0.000000   # C_2
 267 1 9   0.000000   3.566424   1.933811   0.000000   # O_1
 268 1 8   0.000000   4.209222   4.209211   0.000000   # C_R
 269 1 8   0.000000   3.891921   5.535211  26.896000   # C_R
 270 1 8   0.000000   5.535222   3.891912   0.000000   # C_R
 271 1 8   0.000000   4.827820   6.508812  26.896000   # C_R
 272 1 5   0.000000   2.996221   5.780010  26.896000   # H_
 273 1 8   0.000000   6.508821   4.827813   0.000000   # C_R
 274 2 10   0.000000   5.999188   2.689085  26.382479   # O_3
 275 1 8   0.000000   6.204920   6.204913   0.000000   # C_R
 276 1 8   0.000000   7.243120   7.243114  26.896000   # C_R
 277 1 5   0.000000   4.558920   7.399112  26.896000   # H_
 278 1 8   0.000000   6.939219   8.620213  26.896000   # C_R
 279 1 5   0.000000   7.399122   4.558914   0.000000   # H_
 280 1 8   0.000000   8.620220   6.939215   0.000000   # C_R
 281 1 8   0.000000   7.912818   9.556114  26.896000   # C_R
 282 1 5   0.000000   6.048918   8.889113  26.896000   # H_
 283 1 8   0.000000   9.556119   7.912815   0.000000   # C_R
 284 1 5   0.000000   8.889121   6.048915   0.000000   # H_
 285 1 8   0.000000   9.238818   9.238815  26.896000   # C_R
 286 1 6   0.000000  10.295817  10.295816  26.896000   # C_2
 287 2 10   0.000000   7.568269  10.884038  26.879661   # O_3
 288 1 5   0.000000  10.451819   7.668016   0.000000   # H_
 289 1 9   0.000000   9.881616  11.514216  26.896000   # O_1
 290 1 9   0.000000  11.514218   9.881617  26.896000   # O_1
 291 2 7   0.000000   6.228528  11.351302   0.000355   # C_3
 292 2 7   0.000000   6.298086   1.681254   0.446931   # C_3
 293 2 7   0.000000   6.315917  12.877981  26.852948   # C_3
 294 2 5   0.000000   5.730328  11.022451   0.918195   # H_
 295 2 5   0.000000   5.685229  10.987369  26.017066   # H_
 296 2 5   0.000000   6.903734  13.232857   0.813670   # H_
 297 2 7   0.000000   4.967858  13.590089  26.815005   # C_3
 298 2 5   0.000000   6.894699  13.170225  25.966595   # H_
 299 2 7   0.000000   4.158081  13.409534   1.192260   # C_3
 300 2 5   0.000000   4.384540  13.245767  25.953727   # H_
 301 2 5   0.000000   5.148550  14.661966  26.667758   # H_
 302 2 7   0.000000   7.738117   1.199055   0.244281   # C_3
 303 2 5   0.000000   5.642032   0.824623   0.255282   # H_
 304 2 5   0.000000   6.138271   2.010898   1.479700   # H_
 305 2 7   0.000000   8.083782   0.943833  25.667364   # C_3
 306 2 5   0.000000   7.890109   0.286190   0.831641   # H_
 307 2 5   0.000000   8.425799   1.957936   0.635657   # H_
 308 2 5   0.000000   7.333588   0.288795  25.207994   # H_
 309 2 7   0.000000   9.458280   0.312629  25.511402   # C_3
 310 2 5   0.000000   8.070515   1.889425  25.112830   # H_
 311 2 5   0.000000   9.479871  26.207079  25.951720   # H_
 312 2 5   0.000000  10.228691   0.920647  25.996250   # H_
 313 2 5   0.000000   9.715360   0.221540  24.450985   # H_
 314 2 5   0.000000   3.836468  12.371591   1.316428   # H_
 315 2 5   0.000000   3.260681  14.035444   1.157959   # H_
 316 2 5   0.000000   4.739662  13.700501   2.072931   # H_
 317 1 9   0.000000   1.933822  23.329590   0.000000   # O_1
 318 1 6   0.000000   3.152223  23.743789   0.000000   # C_2
 319 1 9   0.000000   3.566424  24.962189   0.000000   # O_1
 320 1 8   0.000000   4.209222  22.686789   0.000000   # C_R
 321 1 8   0.000000   3.891921  21.360789   0.000000   # C_R
 322 1 8   0.000000   5.535222  23.004088   0.000000   # C_R
 323 1 8   0.000000   4.827820  20.387188   0.000000   # C_R
 324 1 5   0.000000   2.996221  21.115990   0.000000   # H_
 325 1 8   0.000000   6.508821  22.068187   0.000000   # C_R
 326 2 10   0.000000   5.999188  24.206915   0.513521   # O_3
 327 1 8   0.000000   6.204920  20.691087   0.000000   # C_R
 328 1 8   0.000000   7.243120  19.652886   0.000000   # C_R
 329 1 5   0.000000   4.558920  19.496888   0.000000   # H_
 330 1 8   0.000000   6.939219  18.275787   0.000000   # C_R
 331 1 5   0.000000   7.399122  22.337086   0.000000   # H_
 332 1 8   0.000000   8.620220  19.956785   0.000000   # C_R
 333 1 8   0.000000   7.912818  17.339886   0.000000   # C_R
 334 1 5   0.000000   6.048918  18.006887   0.000000   # H_
 335 1 8   0.000000   9.556119  18.983185   0.000000   # C_R
 336 1 5   0.000000   8.889121  20.847085   0.000000   # H_
 337 1 8   0.000000   9.238818  17.657185   0.000000   # C_R
 338 1 6   0.000000  10.295817  16.600184   0.000000   # C_2
 339 2 10   0.000000   7.568269  16.011962   0.016339   # O_3
 340 1 5   0.000000  10.451819  19.227984   0.000000   # H_
 341 1 9   0.000000   9.881616  15.381784   0.000000   # O_1
 342 1 9   0.000000  11.514218  17.014383   0.000000   # O_1
 343 2 7   0.000000   6.228528  15.544698  26.895645   # C_3
 344 2 7   0.000000   6.298086  25.214746  26.449069   # C_3
 345 2 7   0.000000   6.315917  14.018019   0.043052   # C_3
 346 2 5   0.000000   5.730328  15.873549  25.977805   # H_
 347 2 5   0.000000   5.685229  15.908631   0.878934   # H_
 348 2 5   0.000000   6.903734  13.663143  26.082330   # H_
 349 2 7   0.000000   4.967858  13.305911   0.080995   # C_3
 350 2 5   0.000000   6.894699  13.725775   0.929405   # H_
 351 2 7   0.000000   4.158081  13.486466  25.703740   # C_3
 352 2 5   0.000000   4.384540  13.650233   0.942273   # H_
 353 2 5   0.000000   5.148550  12.234034   0.228242   # H_
 354 2 7   0.000000   7.738117  25.696945  26.651719   # C_3
 355 2 5   0.000000   5.642032  26.071377  26.640718   # H_
 356 2 5   0.000000   6.138271  24.885102  25.416300   # H_
 357 2 7   0.000000   8.083782  25.952167   1.228636   # C_3
 358 2 5   0.000000   7.890109  26.609810  26.064359   # H_
 359 2 5   0.000000   8.425799  24.938064  26.260343   # H_
 360 2 5   0.000000   7.333588  26.607205   1.688006   # H_
 361 2 7   0.000000   9.458280  26.583371   1.384598   # C_3
 362 2 5   0.000000   8.070515  25.006575   1.783170   # H_
 363 2 5   0.000000   9.479871   0.688921   0.944280   # H_
 364 2 5   0.000000  10.228691  25.975353   0.899750   # H_
 365 2 5   0.000000   9.715360  26.674460   2.445015   # H_
 366 2 5   0.000000   3.836468  14.524409  25.579572   # H_
 367 2 5   0.000000   3.260681  12.860556  25.738041   # H_
 368 2 5   0.000000   4.739662  13.195499  24.823069   # H_
 369 1 9   0.000000  24.962178  23.329590   0.000000   # O_1
 370 1 6   0.000000  23.743777  23.743789   0.000000   # C_2
 371 1 9   0.000000  23.329576  24.962189   0.000000   # O_1
 372 1 8   0.000000  22.686778  22.686789   0.000000   # C_R
 373 1 8   0.000000  23.004079  21.360789  26.896000   # C_R
 374 1 8   0.000000  21.360778  23.004088   0.000000   # C_R
 375 1 8   0.000000  22.068180  20.387188  26.896000   # C_R
 376 1 5   0.000000  23.899779  21.115990  26.896000   # H_
 377 1 8   0.000000  20.387179  22.068187   0.000000   # C_R
 378 2 10   0.000000  20.896812  24.206915  26.382479   # O_3
 379 1 8   0.000000  20.691080  20.691087   0.000000   # C_R
 380 1 8   0.000000  19.652880  19.652886  26.896000   # C_R
 381 1 5   0.000000  22.337080  19.496888  26.896000   # H_
 382 1 8   0.000000  19.956781  18.275787  26.896000   # C_R
 383 1 5   0.000000  19.496878  22.337086   0.000000   # H_
 384 1 8   0.000000  18.275780  19.956785   0.000000   # C_R
 385 1 8   0.000000  18.983182  17.339886  26.896000   # C_R
 386 1 5   0.000000  20.847082  18.006887  26.896000   # H_
 387 1 8   0.000000  17.339881  18.983185   0.000000   # C_R
 388 1 5   0.000000  18.006879  20.847085   0.000000   # H_
 389 1 8   0.000000  17.657182  17.657185  26.896000   # C_R
 390 1 6   0.000000  16.600183  16.600184  26.896000   # C_2
 391 2 10   0.000000  19.327731  16.011962  26.879661   # O_3
 392 1 5   0.000000  16.444181  19.227984   0.000000   # H_
 393 1 9   0.000000  17.014384  15.381784  26.896000   # O_1
 394 1 9   0.000000  15.381782  17.014383   0.000000   # O_1
 395 2 7   0.000000  20.667472  15.544698   0.000355   # C_3
 396 2 7   0.000000  20.597914  25.214746   0.446931   # C_3
 397 2 7   0.000000  20.580083  14.018019  26.852948   # C_3
 398 2 5   0.000000  21.165672  15.873549   0.918195   # H_
 399 2 5   0.000000  21.210771  15.908631  26.017066   # H_
 400 2 5   0.000000  19.992266  13.663143   0.813670   # H_
 401 2 7   0.000000  21.928142  13.305911  26.815005   # C_3
 402 2 5   0.000000  20.001301  13.725775  25.966595   # H_
 403 2 7   0.000000  22.737919  13.486466   1.192260   # C_3
 404 2 5   0.000000  22.511460  13.650233  25.953727   # H_
 405 2 5   0.000000  21.747450  12.234034  26.667758   # H_
 406 2 7   0.000000  19.157883  25.696945   0.244281   # C_3
 407 2 5   0.000000  21.253968  26.071377   0.255282   # H_
 408 2 5   0.000000  20.757729  24.885102   1.479700   # H_
 409 2 7   0.000000  18.812218  25.952167  25.667364   # C_3
 410 2 5   0.000000  19.005891  26.609810   0.831641   # H_
 411 2 5   0.000000  18.470201  24.938064   0.635657   # H_
 412 2 5   0.000000  19.562412  26.607205  25.207994   # H_
 413 2 7   0.000000  17.437720  26.583371  25.511402   # C_3
 414 2 5   0.000000  18.825485  25.006575  25.112830   # H_
 415 2 5   0.000000  17.416129   0.688921  25.951720   # H_
 416 2 5   0.000000  16.667309  25.975353  25.996250   # H_
 417 2 5   0.000000  17.180640  26.674460  24.450985   # H_
 418 2 5   0.000000  23.059532  14.524409   1.316428   # H_
 419 2 5   0.000000  23.635319  12.860556   1.157959   # H_
 420 2 5   0.000000  22.156338  13.195499   2.072931   # H_
 421 1 9   0.000000  24.962178   3.566410   0.000000   # O_1
 422 1 6   0.000000  23.743777   3.152211   0.000000   # C_2
 423 1 9   0.000000  23.329576   1.933811   0.000000   # O_1
 424 1 8   0.000000  22.686778   4.209211   0.000000   # C_R
 425 1 8   0.000000  23.004079   5.535211   0.000000   # C_R
 426 1 8   0.000000  21.360778   3.891912   0.000000   # C_R
 427 1 8   0.000000  22.068180   6.508812   0.000000   # C_R
 428 1 5   0.000000  23.899779   5.780010   0.000000   # H_
 429 1 8   0.000000  20.387179   4.827813   0.000000   # C_R
 430 2 10   0.000000  20.896812   2.689085   0.513521   # O_3
 431 1 8   0.000000  20.691080   6.204913   0.000000   # C_R
 432 1 8   0.000000  19.652880   7.243114   0.000000   # C_R
 433 1 5   0.000000  22.337080   7.399112   0.000000   # H_
 434 1 8   0.000000  19.956781   8.620213   0.000000   # C_R
 435 1 5   0.000000  19.496878   4.558914   0.000000   # H_
 436 1 8   0.000000  18.275780   6.939215   0.000000   # C_R
 437 1 8   0.000000  18.983182   9.556114   0.000000   # C_R
 438 1 5   0.000000  20.847082   8.889113   0.000000   # H_
 439 1 8   0.000000  17.339881   7.912815   0.000000   # C_R
 440 1 5   0.000000  18.006879   6.048915   0.000000   # H_
 441 1 8   0.000000  17.657182   9.238815   0.000000   # C_R
 442 1 6   0.000000  16.600183  10.295816   0.000000   # C_2
 443 2 10   0.000000  19.327731  10.884038   0.016339   # O_3
 444 1 5   0.000000  16.444181   7.668016   0.000000   # H_
 445 1 9   0.000000  17.014384  11.514216   0.000000   # O_1
 446 1 9   0.000000  15.381782   9.881617   0.000000   # O_1
 447 2 7   0.000000  20.667472  11.351302  26.895645   # C_3
 448 2 7   0.000000  20.597914   1.681254  26.449069   # C_3
 449 2 7   0.000000  20.580083  12.877981   0.043052   # C_3
 450 2 5   0.000000  21.165672  11.022451  25.977805   # H_
 451 2 5   0.000000  21.210771  10.987369   0.878934   # H_
 452 2 5   0.000000  19.992266  13.232857  26.082330   # H_
 453 2 7   0.000000  21.928142  13.590089   0.080995   # C_3
 454 2 5   0.000000  20.001301  13.170225   0.929405   # H_
 455 2 7   0.000000  22.737919  13.409534  25.703740   # C_3
 456 2 5   0.000000  22.511460  13.245767   0.942273   # H_
 457 2 5   0.000000  21.747450  14.661966   0.228242   # H_
 458 2 7   0.000000  19.157883   1.199055  26.651719   # C_3
 459 2 5   0.000000  21.253968   0.824623  26.640718   # H_
 460 2 5   0.000000  20.757729   2.010898  25.416300   # H_
 461 2 7   0.000000  18.812218   0.943833   1.228636   # C_3
 462 2 5   0.000000  19.005891   0.286190  26.064359   # H_
 463 2 5   0.000000  18.470201   1.957936  26.260343   # H_