 (written by mofun)

840 atoms
432 bonds
840 angles
1200 dihedrals
0 impropers

10 atom types
5 bond types
9 angle types
11 dihedral types
   0.000000  20.700400 xlo xhi
   0.000000  20.700400 ylo yhi
   0.000000  20.700400 zlo zhi

Masses

 1 91.2240   # Zr3+4
 2 15.9994   # O_3
 3 12.0107   # C_3
 4 1.0079   # H_
 5 1.0079   # H_
 6 12.0107   # C_2
 7 12.0107   # C_3
 8 12.0107   # C_R
 9 14.0067   # N_3
 10 15.9994   # O_1

Pair Coeffs

 1   0.069000   2.783168 # Zr3+4
 2   0.060000   3.118146 # O_3
 3   0.105000   3.430851 # C_3
 4   0.044000   2.571134 # H_
 5 0.044000 2.571134   # H_
 6 0.105000 3.430851   # C_2
 7 0.105000 3.430851   # C_3
 8 0.105000 3.430851   # C_R
 9 0.069000 3.260689   # N_3
 10 0.060000 3.118146   # O_1

Bond Coeffs

 1 560.312976 1.423192   # C_R N_3
 2 527.945261 1.044419   # H_ N_3
 3 528.634538 1.451071   # C_3 N_3
 4 331.069389 1.109401   # C_3 H_
 5 349.795899 1.514000   # C_3 C_3

Angle Coeffs

 1 cosine/periodic  282.369526  -1  3   # C_R C_R N_3
 2 fourier  150.574599  0.317506  0.313225  0.272502   # C_R N_3 H_
 3 fourier  268.482172  0.317506  0.313225  0.272502   # C_3 N_3 C_R
 4 fourier  144.695053  0.317506  0.313225  0.272502   # C_3 N_3 H_
 5 fourier  169.780468  0.343737  0.374972  0.281246   # H_ C_3 N_3
 6 fourier  303.297032  0.343737  0.374972  0.281246   # C_3 C_3 N_3
 7 fourier  75.498766  0.343737  0.374972  0.281246   # H_ C_3 H_
 8 fourier  117.318683  0.343737  0.374972  0.281246   # C_3 C_3 H_
 9 fourier  214.211821  0.343737  0.374972  0.281246   # C_3 C_3 C_3

Dihedral Coeffs

 1 harmonic 3.368555 -1 2   # C_2 C_R C_R N_3 M=4
 2 harmonic 3.368555 -1 2   # C_R C_R C_R N_3 M=4
 3 harmonic 0.125000 -1 6   # C_R C_R N_3 H_ M=4
 4 harmonic 0.125000 -1 6   # C_3 N_3 C_R C_R M=4
 5 harmonic 3.368555 -1 2   # H_ C_R C_R N_3 M=4
 6 harmonic 0.081375 1 3   # C_R N_3 C_3 H_ M=6
 7 harmonic 0.081375 1 3   # C_3 C_3 N_3 C_R M=6
 8 harmonic 0.081375 1 3   # H_ C_3 N_3 H_ M=6
 9 harmonic 0.081375 1 3   # C_3 C_3 N_3 H_ M=6
 10 harmonic 0.117722 1 3   # C_3 C_3 C_3 N_3 M=9
 11 harmonic 0.117722 1 3   # C_3 C_3 C_3 H_ M=9

Atoms

 1 1 1   0.000000   2.481771   0.000000   0.000000   # Zr3+4
 2 1 1   0.000000   2.481771  10.350200  10.350200   # Zr3+4
 3 1 1   0.000000  12.831971   0.000000  10.350200   # Zr3+4
 4 1 1   0.000000  12.831971  10.350200   0.000000   # Zr3+4
 5 1 1   0.000000  18.218629   0.000000   0.000000   # Zr3+4
 6 1 1   0.000000  18.218629  10.350200  10.350200   # Zr3+4
 7 1 1   0.000000   7.868429   0.000000  10.350200   # Zr3+4
 8 1 1   0.000000   7.868429  10.350200   0.000000   # Zr3+4
 9 1 1   0.000000   0.000000   2.481771   0.000000   # Zr3+4
 10 1 1   0.000000   0.000000  12.831971  10.350200   # Zr3+4
 11 1 1   0.000000  10.350200   2.481771  10.350200   # Zr3+4
 12 1 1   0.000000  10.350200  12.831971   0.000000   # Zr3+4
 13 1 1   0.000000   0.000000  18.218629   0.000000   # Zr3+4
 14 1 1   0.000000   0.000000   7.868429  10.350200   # Zr3+4
 15 1 1   0.000000  10.350200  18.218629  10.350200   # Zr3+4
 16 1 1   0.000000  10.350200   7.868429   0.000000   # Zr3+4
 17 1 1   0.000000   0.000000   0.000000   2.481771   # Zr3+4
 18 1 1   0.000000   0.000000  10.350200  12.831971   # Zr3+4
 19 1 1   0.000000  10.350200   0.000000  12.831971   # Zr3+4
 20 1 1   0.000000  10.350200  10.350200   2.481771   # Zr3+4
 21 1 1   0.000000   0.000000   0.000000  18.218629   # Zr3+4
 22 1 1   0.000000   0.000000  10.350200   7.868429   # Zr3+4
 23 1 1   0.000000  10.350200   0.000000   7.868429   # Zr3+4
 24 1 1   0.000000  10.350200  10.350200  18.218629   # Zr3+4
 25 1 2   0.000000   1.161292   9.188908   9.188908   # O_3
 26 1 2   0.000000  11.511492  19.539108   9.188908   # O_3
 27 1 2   0.000000  11.511492   9.188908  19.539108   # O_3
 28 1 2   0.000000   9.188908   1.161292   9.188908   # O_3
 29 1 2   0.000000   9.188908  11.511492  19.539108   # O_3
 30 1 2   0.000000  19.539108  19.539108   1.161292   # O_3
 31 1 2   0.000000  19.539108   9.188908  11.511492   # O_3
 32 1 2   0.000000   1.161292   1.161292   1.161292   # O_3
 33 1 2   0.000000  11.511492  11.511492   1.161292   # O_3
 34 1 2   0.000000  19.539108   1.161292   1.161292   # O_3
 35 1 2   0.000000  19.539108  11.511492  11.511492   # O_3
 36 1 2   0.000000   9.188908   1.161292  11.511492   # O_3
 37 1 2   0.000000   9.188908  11.511492   1.161292   # O_3
 38 1 2   0.000000   1.161292  19.539108   1.161292   # O_3
 39 1 2   0.000000   1.161292   9.188908  11.511492   # O_3
 40 1 2   0.000000  11.511492  19.539108  11.511492   # O_3
 41 1 2   0.000000  11.511492   9.188908   1.161292   # O_3
 42 1 2   0.000000  19.539108  19.539108  19.539108   # O_3
 43 1 2   0.000000  19.539108   9.188908   9.188908   # O_3
 44 1 2   0.000000   9.188908  19.539108   9.188908   # O_3
 45 1 2   0.000000   9.188908   9.188908  19.539108   # O_3
 46 1 2   0.000000   1.161292   1.161292  19.539108   # O_3
 47 1 2   0.000000   1.161292  11.511492   9.188908   # O_3
 48 1 2   0.000000  11.511492   1.161292   9.188908   # O_3
 49 1 6   0.000000   3.179581   0.000000  17.520819   # C_2
 50 1 10   0.000000   3.528595   0.000000  18.727815   # O_1
 51 1 10   0.000000   1.972577  20.700400  17.171832   # O_1
 52 1 8   0.000000   4.243569   0.000000  16.456806   # C_R
 53 1 8   0.000000   3.816555  20.700400  15.162811   # C_R
 54 2 9   0.000000   2.481447   0.185423  14.721613   # N_3
 55 1 5   0.000000   4.580531  20.700400  13.051803   # H_
 56 1 8   0.000000   4.812543  20.700400  14.167800   # C_R
 57 1 8   0.000000   6.106548   0.000000  14.593785   # C_R
 58 1 8   0.000000   6.532563   0.000000  15.887781   # C_R
 59 1 8   0.000000   5.537574   0.000000  16.883792   # C_R
 60 1 5   0.000000   5.769587   0.000000  17.999789   # H_
 61 1 5   0.000000   7.648566   0.000000  16.119768   # H_
 62 1 10   0.000000   8.377540   0.000000  13.878760   # O_1
 63 1 6   0.000000   7.170536   0.000000  13.529773   # C_2
 64 1 10   0.000000   6.821523  20.700400  12.322777   # O_1
 65 2 5   0.000000   1.913946  20.671127  15.571200   # H_
 66 2 7   0.000000   2.240781   1.588885  14.365184   # C_3
 67 2 5   0.000000   2.929789   1.899340  13.568335   # H_
 68 2 5   0.000000   2.434994   2.235025  15.232512   # H_
 69 2 7   0.000000   0.786871   1.814692  13.872389   # C_3
 70 2 7   0.000000   0.493162   0.959935  12.627678   # C_3
 71 2 7   0.000000   0.632797   3.301223  13.495984   # C_3
 72 2 7   0.000000  20.462859   1.484822  14.971641   # C_3
 73 2 5   0.000000   1.213286   1.166549  11.828090   # H_
 74 2 5   0.000000  20.191690   1.167762  12.234782   # H_
 75 2 5   0.000000   0.540158  20.589405  12.852735   # H_
 76 2 5   0.000000   1.334107   3.584116  12.702891   # H_
 77 2 5   0.000000   0.824876   3.949229  14.358696   # H_
 78 2 5   0.000000  20.320812   3.517703  13.136479   # H_
 79 2 5   0.000000  20.457117   0.417227  15.214916   # H_
 80 2 5   0.000000  19.447064   1.748239  14.654984   # H_
 81 2 5   0.000000  20.678101   2.040231  15.891265   # H_
 82 1 6   0.000000   3.179581  10.350200   7.170619   # C_2
 83 1 10   0.000000   3.528595  10.350200   8.377615   # O_1
 84 1 10   0.000000   1.972577  10.350200   6.821632   # O_1
 85 1 8   0.000000   4.243569  10.350200   6.106606   # C_R
 86 1 8   0.000000   3.816555  10.350200   4.812611   # C_R
 87 2 9   0.000000   2.481447  10.535623   4.371413   # N_3
 88 1 5   0.000000   4.580531  10.350200   2.701603   # H_
 89 1 8   0.000000   4.812543  10.350200   3.817600   # C_R
 90 1 8   0.000000   6.106548  10.350200   4.243585   # C_R
 91 1 8   0.000000   6.532563  10.350200   5.537581   # C_R
 92 1 8   0.000000   5.537574  10.350200   6.533592   # C_R
 93 1 5   0.000000   5.769587  10.350200   7.649589   # H_
 94 1 5   0.000000   7.648566  10.350200   5.769568   # H_
 95 1 10   0.000000   8.377540  10.350200   3.528560   # O_1
 96 1 6   0.000000   7.170536  10.350200   3.179573   # C_2
 97 1 10   0.000000   6.821523  10.350200   1.972577   # O_1
 98 2 5   0.000000   1.913946  10.320927   5.221000   # H_
 99 2 7   0.000000   2.240781  11.939085   4.014984   # C_3
 100 2 5   0.000000   2.929789  12.249540   3.218135   # H_
 101 2 5   0.000000   2.434994  12.585225   4.882312   # H_
 102 2 7   0.000000   0.786871  12.164892   3.522189   # C_3
 103 2 7   0.000000   0.493162  11.310135   2.277478   # C_3
 104 2 7   0.000000   0.632797  13.651423   3.145784   # C_3
 105 2 7   0.000000  20.462859  11.835022   4.621441   # C_3
 106 2 5   0.000000   1.213286  11.516749   1.477890   # H_
 107 2 5   0.000000  20.191690  11.517962   1.884582   # H_
 108 2 5   0.000000   0.540158  10.239205   2.502535   # H_
 109 2 5   0.000000   1.334107  13.934316   2.352691   # H_
 110 2 5   0.000000   0.824876  14.299429   4.008496   # H_
 111 2 5   0.000000  20.320812  13.867903   2.786279   # H_
 112 2 5   0.000000  20.457117  10.767427   4.864716   # H_
 113 2 5   0.000000  19.447064  12.098439   4.304784   # H_
 114 2 5   0.000000  20.678101  12.390431   5.541065   # H_
 115 1 6   0.000000  13.529781   0.000000   7.170619   # C_2
 116 1 10   0.000000  13.878795   0.000000   8.377615   # O_1
 117 1 10   0.000000  12.322777  20.700400   6.821632   # O_1
 118 1 8   0.000000  14.593769   0.000000   6.106606   # C_R
 119 1 8   0.000000  14.166755  20.700400   4.812611   # C_R
 120 2 9   0.000000  12.831647   0.185423   4.371413   # N_3
 121 1 5   0.000000  14.930731  20.700400   2.701603   # H_
 122 1 8   0.000000  15.162743  20.700400   3.817600   # C_R
 123 1 8   0.000000  16.456748   0.000000   4.243585   # C_R
 124 1 8   0.000000  16.882763   0.000000   5.537581   # C_R
 125 1 8   0.000000  15.887774   0.000000   6.533592   # C_R
 126 1 5   0.000000  16.119787   0.000000   7.649589   # H_
 127 1 5   0.000000  17.998766   0.000000   5.769568   # H_
 128 1 10   0.000000  18.727740   0.000000   3.528560   # O_1
 129 1 6   0.000000  17.520736   0.000000   3.179573   # C_2
 130 1 10   0.000000  17.171723  20.700400   1.972577   # O_1
 131 2 5   0.000000  12.264146  20.671127   5.221000   # H_
 132 2 7   0.000000  12.590981   1.588885   4.014984   # C_3
 133 2 5   0.000000  13.279989   1.899340   3.218135   # H_
 134 2 5   0.000000  12.785194   2.235025   4.882312   # H_
 135 2 7   0.000000  11.137071   1.814692   3.522189   # C_3
 136 2 7   0.000000  10.843362   0.959935   2.277478   # C_3
 137 2 7   0.000000  10.982997   3.301223   3.145784   # C_3
 138 2 7   0.000000  10.112659   1.484822   4.621441   # C_3
 139 2 5   0.000000  11.563486   1.166549   1.477890   # H_
 140 2 5   0.000000   9.841490   1.167762   1.884582   # H_
 141 2 5   0.000000  10.890358  20.589405   2.502535   # H_
 142 2 5   0.000000  11.684307   3.584116   2.352691   # H_
 143 2 5   0.000000  11.175076   3.949229   4.008496   # H_
 144 2 5   0.000000   9.970612   3.517703   2.786279   # H_
 145 2 5   0.000000  10.106917   0.417227   4.864716   # H_
 146 2 5   0.000000   9.096864   1.748239   4.304784   # H_
 147 2 5   0.000000  10.327901   2.040231   5.541065   # H_
 148 1 6   0.000000  13.529781  10.350200  17.520819   # C_2
 149 1 10   0.000000  13.878795  10.350200  18.727815   # O_1
 150 1 10   0.000000  12.322777  10.350200  17.171832   # O_1
 151 1 8   0.000000  14.593769  10.350200  16.456806   # C_R
 152 1 8   0.000000  14.166755  10.350200  15.162811   # C_R
 153 2 9   0.000000  12.831647  10.535623  14.721613   # N_3
 154 1 5   0.000000  14.930731  10.350200  13.051803   # H_
 155 1 8   0.000000  15.162743  10.350200  14.167800   # C_R
 156 1 8   0.000000  16.456748  10.350200  14.593785   # C_R
 157 1 8   0.000000  16.882763  10.350200  15.887781   # C_R
 158 1 8   0.000000  15.887774  10.350200  16.883792   # C_R
 159 1 5   0.000000  16.119787  10.350200  17.999789   # H_
 160 1 5   0.000000  17.998766  10.350200  16.119768   # H_
 161 1 10   0.000000  18.727740  10.350200  13.878760   # O_1
 162 1 6   0.000000  17.520736  10.350200  13.529773   # C_2
 163 1 10   0.000000  17.171723  10.350200  12.322777   # O_1
 164 2 5   0.000000  12.264146  10.320927  15.571200   # H_
 165 2 7   0.000000  12.590981  11.939085  14.365184   # C_3
 166 2 5   0.000000  13.279989  12.249540  13.568335   # H_
 167 2 5   0.000000  12.785194  12.585225  15.232512   # H_
 168 2 7   0.000000  11.137071  12.164892  13.872389   # C_3
 169 2 7   0.000000  10.843362  11.310135  12.627678   # C_3
 170 2 7   0.000000  10.982997  13.651423  13.495984   # C_3
 171 2 7   0.000000  10.112659  11.835022  14.971641   # C_3
 172 2 5   0.000000  11.563486  11.516749  11.828090   # H_
 173 2 5   0.000000   9.841490  11.517962  12.234782   # H_
 174 2 5   0.000000  10.890358  10.239205  12.852735   # H_
 175 2 5   0.000000  11.684307  13.934316  12.702891   # H_
 176 2 5   0.000000  11.175076  14.299429  14.358696   # H_
 177 2 5   0.000000   9.970612  13.867903  13.136479   # H_
 178 2 5   0.000000  10.106917  10.767427  15.214916   # H_
 179 2 5   0.000000   9.096864  12.098439  14.654984   # H_
 180 2 5   0.000000  10.327901  12.390431  15.891265   # H_
 181 1 6   0.000000  17.520819   0.000000  17.520819   # C_2
 182 1 10   0.000000  17.171805   0.000000  18.727815   # O_1
 183 1 10   0.000000  18.727823   0.000000  17.171832   # O_1
 184 1 8   0.000000  16.456831   0.000000  16.456806   # C_R
 185 1 8   0.000000  16.883845   0.000000  15.162811   # C_R
 186 2 9   0.000000  18.218953  20.514977  14.721613   # N_3
 187 1 5   0.000000  16.119869   0.000000  13.051803   # H_
 188 1 8   0.000000  15.887857   0.000000  14.167800   # C_R
 189 1 8   0.000000  14.593852   0.000000  14.593785   # C_R
 190 1 8   0.000000  14.167837   0.000000  15.887781   # C_R
 191 1 8   0.000000  15.162826   0.000000  16.883792   # C_R
 192 1 5   0.000000  14.930813   0.000000  17.999789   # H_
 193 1 5   0.000000  13.051834   0.000000  16.119768   # H_
 194 1 10   0.000000  12.322860   0.000000  13.878760   # O_1
 195 1 6   0.000000  13.529864   0.000000  13.529773   # C_2
 196 1 10   0.000000  13.878877   0.000000  12.322777   # O_1
 197 2 5   0.000000  18.786454   0.029273  15.571200   # H_
 198 2 7   0.000000  18.459619  19.111515  14.365184   # C_3
 199 2 5   0.000000  17.770611  18.801060  13.568335   # H_
 200 2 5   0.000000  18.265406  18.465375  15.232512   # H_
 201 2 7   0.000000  19.913529  18.885708  13.872389   # C_3
 202 2 7   0.000000  20.207238  19.740465  12.627678   # C_3
 203 2 7   0.000000  20.067603  17.399177  13.495984   # C_3
 204 2 7   0.000000   0.237541  19.215578  14.971641   # C_3
 205 2 5   0.000000  19.487114  19.533851  11.828090   # H_
 206 2 5   0.000000   0.508710  19.532638  12.234782   # H_
 207 2 5   0.000000  20.160242   0.110995  12.852735   # H_
 208 2 5   0.000000  19.366293  17.116284  12.702891   # H_
 209 2 5   0.000000  19.875524  16.751171  14.358696   # H_
 210 2 5   0.000000   0.379588  17.182697  13.136479   # H_
 211 2 5   0.000000   0.243283  20.283173  15.214916   # H_
 212 2 5   0.000000   1.253336  18.952161  14.654984   # H_
 213 2 5   0.000000   0.022299  18.660169  15.891265   # H_
 214 1 6   0.000000  17.520819  10.350200   7.170619   # C_2
 215 1 10   0.000000  17.171805  10.350200   8.377615   # O_1
 216 1 10   0.000000  18.727823  10.350200   6.821632   # O_1
 217 1 8   0.000000  16.456831  10.350200   6.106606   # C_R
 218 1 8   0.000000  16.883845  10.350200   4.812611   # C_R
 219 2 9   0.000000  18.218953  10.164777   4.371413   # N_3
 220 1 5   0.000000  16.119869  10.350200   2.701603   # H_
 221 1 8   0.000000  15.887857  10.350200   3.817600   # C_R
 222 1 8   0.000000  14.593852  10.350200   4.243585   # C_R
 223 1 8   0.000000  14.167837  10.350200   5.537581   # C_R
 224 1 8   0.000000  15.162826  10.350200   6.533592   # C_R
 225 1 5   0.000000  14.930813  10.350200   7.649589   # H_
 226 1 5   0.000000  13.051834  10.350200   5.769568   # H_
 227 1 10   0.000000  12.322860  10.350200   3.528560   # O_1
 228 1 6   0.000000  13.529864  10.350200   3.179573   # C_2
 229 1 10   0.000000  13.878877  10.350200   1.972577   # O_1
 230 2 5   0.000000  18.786454  10.379473   5.221000   # H_
 231 2 7   0.000000  18.459619   8.761315   4.014984   # C_3
 232 2 5   0.000000  17.770611   8.450860   3.218135   # H_
 233 2 5   0.000000  18.265405   8.115175   4.882312   # H_
 234 2 7   0.000000  19.913529   8.535508   3.522189   # C_3
 235 2 7   0.000000  20.207238   9.390265   2.277478   # C_3
 236 2 7   0.000000  20.067603   7.048977   3.145784   # C_3
 237 2 7   0.000000   0.237541   8.865378   4.621441   # C_3
 238 2 5   0.000000  19.487114   9.183651   1.477890   # H_
 239 2 5   0.000000   0.508710   9.182438   1.884582   # H_
 240 2 5   0.000000  20.160242  10.461195   2.502535   # H_
 241 2 5   0.000000  19.366293   6.766084   2.352692   # H_
 242 2 5   0.000000  19.875524   6.400971   4.008496   # H_
 243 2 5   0.000000   0.379588   6.832497   2.786279   # H_
 244 2 5   0.000000   0.243283   9.932973   4.864716   # H_
 245 2 5   0.000000   1.253336   8.601961   4.304784   # H_
 246 2 5   0.000000   0.022299   8.309969   5.541065   # H_
 247 1 6   0.000000   7.170619   0.000000   7.170619   # C_2
 248 1 10   0.000000   6.821605   0.000000   8.377615   # O_1
 249 1 10   0.000000   8.377623   0.000000   6.821632   # O_1
 250 1 8   0.000000   6.106631   0.000000   6.106606   # C_R
 251 1 8   0.000000   6.533645   0.000000   4.812611   # C_R
 252 2 9   0.000000   7.868753  20.514977   4.371413   # N_3
 253 1 5   0.000000   5.769669   0.000000   2.701603   # H_
 254 1 8   0.000000   5.537657   0.000000   3.817600   # C_R
 255 1 8   0.000000   4.243652   0.000000   4.243585   # C_R
 256 1 8   0.000000   3.817637   0.000000   5.537581   # C_R
 257 1 8   0.000000   4.812626   0.000000   6.533592   # C_R
 258 1 5   0.000000   4.580613   0.000000   7.649589   # H_
 259 1 5   0.000000   2.701634   0.000000   5.769568   # H_
 260 1 10   0.000000   1.972660   0.000000   3.528560   # O_1
 261 1 6   0.000000   3.179664   0.000000   3.179573   # C_2
 262 1 10   0.000000   3.528677   0.000000   1.972577   # O_1
 263 2 5   0.000000   8.436254   0.029273   5.221000   # H_
 264 2 7   0.000000   8.109419  19.111515   4.014984   # C_3
 265 2 5   0.000000   7.420411  18.801060   3.218135   # H_
 266 2 5   0.000000   7.915206  18.465375   4.882312   # H_
 267 2 7   0.000000   9.563329  18.885708   3.522189   # C_3
 268 2 7   0.000000   9.857038  19.740465   2.277478   # C_3
 269 2 7   0.000000   9.717403  17.399177   3.145784   # C_3
 270 2 7   0.000000  10.587741  19.215578   4.621441   # C_3
 271 2 5   0.000000   9.136914  19.533851   1.477890   # H_
 272 2 5   0.000000  10.858910  19.532638   1.884582   # H_
 273 2 5   0.000000   9.810042   0.110995   2.502535   # H_
 274 2 5   0.000000   9.016093  17.116284   2.352691   # H_
 275 2 5   0.000000   9.525324  16.751171   4.008496   # H_
 276 2 5   0.000000  10.729788  17.182697   2.786279   # H_
 277 2 5   0.000000  10.593483  20.283173   4.864716   # H_
 278 2 5   0.000000  11.603536  18.952161   4.304784   # H_
 279 2 5   0.000000  10.372499  18.660169   5.541065   # H_
 280 1 6   0.000000   7.170619  10.350200  17.520819   # C_2
 281 1 10   0.000000   6.821605  10.350200  18.727815   # O_1
 282 1 10   0.000000   8.377623  10.350200  17.171832   # O_1
 283 1 8   0.000000   6.106631  10.350200  16.456806   # C_R
 284 1 8   0.000000   6.533645  10.350200  15.162811   # C_R
 285 2 9   0.000000   7.868753  10.164777  14.721613   # N_3
 286 1 5   0.000000   5.769669  10.350200  13.051803   # H_
 287 1 8   0.000000   5.537657  10.350200  14.167800   # C_R
 288 1 8   0.000000   4.243652  10.350200  14.593785   # C_R
 289 1 8   0.000000   3.817637  10.350200  15.887781   # C_R
 290 1 8   0.000000   4.812626  10.350200  16.883792   # C_R
 291 1 5   0.000000   4.580613  10.350200  17.999789   # H_
 292 1 5   0.000000   2.701634  10.350200  16.119768   # H_
 293 1 10   0.000000   1.972660  10.350200  13.878760   # O_1
 294 1 6   0.000000   3.179664  10.350200  13.529773   # C_2
 295 1 10   0.000000   3.528677  10.350200  12.322777   # O_1
 296 2 5   0.000000   8.436254  10.379473  15.571200   # H_
 297 2 7   0.000000   8.109419   8.761315  14.365184   # C_3
 298 2 5   0.000000   7.420411   8.450860  13.568335   # H_
 299 2 5   0.000000   7.915206   8.115175  15.232512   # H_
 300 2 7   0.000000   9.563329   8.535508  13.872389   # C_3
 301 2 7   0.000000   9.857038   9.390265  12.627678   # C_3
 302 2 7   0.000000   9.717403   7.048977  13.495984   # C_3
 303 2 7   0.000000  10.587741   8.865378  14.971641   # C_3
 304 2 5   0.000000   9.136914   9.183651  11.828090   # H_
 305 2 5   0.000000  10.858910   9.182438  12.234782   # H_
 306 2 5   0.000000   9.810042  10.461195  12.852735   # H_
 307 2 5   0.000000   9.016093   6.766084  12.702891   # H_
 308 2 5   0.000000   9.525324   6.400971  14.358696   # H_
 309 2 5   0.000000  10.729788   6.832497  13.136479   # H_
 310 2 5   0.000000  10.593483   9.932973  15.214916   # H_
 311 2 5   0.000000  11.603536   8.601961  14.654984   # H_
 312 2 5   0.000000  10.372499   8.309969  15.891265   # H_
 313 1 6   0.000000  17.520819   3.179581   0.000000   # C_2
 314 1 10   0.000000  18.727815   3.528595  20.700400   # O_1
 315 1 10   0.000000  17.171832   1.972577   0.000000   # O_1
 316 1 8   0.000000  16.456806   4.243569  20.700400   # C_R
 317 1 8   0.000000  15.162811   3.816555   0.000000   # C_R
 318 2 9   0.000000  14.721613   2.481447   0.185423   # N_3
 319 1 5   0.000000  13.051803   4.580531   0.000000   # H_
 320 1 8   0.000000  14.167800   4.812543   0.000000   # C_R
 321 1 8   0.000000  14.593785   6.106548  20.700400   # C_R
 322 1 8   0.000000  15.887781   6.532563  20.700400   # C_R
 323 1 8   0.000000  16.883792   5.537574  20.700400   # C_R
 324 1 5   0.000000  17.999789   5.769587  20.700400   # H_
 325 1 5   0.000000  16.119768   7.648566  20.700400   # H_
 326 1 10   0.000000  13.878760   8.377540  20.700400   # O_1
 327 1 6   0.000000  13.529773   7.170536  20.700400   # C_2
 328 1 10   0.000000  12.322777   6.821523   0.000000   # O_1
 329 2 5   0.000000  15.571200   1.913946  20.671127   # H_
 330 2 7   0.000000  14.365184   2.240781   1.588885   # C_3
 331 2 5   0.000000  13.568335   2.929789   1.899340   # H_
 332 2 5   0.000000  15.232512   2.434994   2.235025   # H_
 333 2 7   0.000000  13.872389   0.786871   1.814692   # C_3
 334 2 7   0.000000  12.627678   0.493162   0.959935   # C_3
 335 2 7   0.000000  13.495984   0.632797   3.301223   # C_3
 336 2 7   0.000000  14.971641  20.462859   1.484822   # C_3
 337 2 5   0.000000  11.828090   1.213286   1.166549   # H_
 338 2 5   0.000000  12.234782  20.191690   1.167762   # H_
 339 2 5   0.000000  12.852735   0.540158  20.589405   # H_
 340 2 5   0.000000  12.702891   1.334107   3.584116   # H_
 341 2 5   0.000000  14.358696   0.824876   3.949229   # H_
 342 2 5   0.000000  13.136479  20.320812   3.517703   # H_
 343 2 5   0.000000  15.214916  20.457117   0.417227   # H_
 344 2 5   0.000000  14.654984  19.447064   1.748239   # H_
 345 2 5   0.000000  15.891265  20.678101   2.040231   # H_
 346 1 6   0.000000  17.520819  13.529781  10.350200   # C_2
 347 1 10   0.000000  18.727815  13.878795  10.350200   # O_1
 348 1 10   0.000000  17.171832  12.322777  10.350200   # O_1
 349 1 8   0.000000  16.456806  14.593769  10.350200   # C_R
 350 1 8   0.000000  15.162811  14.166755  10.350200   # C_R
 351 2 9   0.000000  14.721613  12.831647  10.535623   # N_3
 352 1 5   0.000000  13.051803  14.930731  10.350200   # H_
 353 1 8   0.000000  14.167800  15.162743  10.350200   # C_R
 354 1 8   0.000000  14.593785  16.456748  10.350200   # C_R
 355 1 8   0.000000  15.887781  16.882763  10.350200   # C_R
 356 1 8   0.000000  16.883792  15.887774  10.350200   # C_R
 357 1 5   0.000000  17.999789  16.119787  10.350200   # H_
 358 1 5   0.000000  16.119768  17.998766  10.350200   # H_
 359 1 10   0.000000  13.878760  18.727740  10.350200   # O_1
 360 1 6   0.000000  13.529773  17.520736  10.350200   # C_2
 361 1 10   0.000000  12.322777  17.171723  10.350200   # O_1
 362 2 5   0.000000  15.571200  12.264146  10.320927   # H_
 363 2 7   0.000000  14.365184  12.590981  11.939085   # C_3
 364 2 5   0.000000  13.568335  13.279989  12.249540   # H_
 365 2 5   0.000000  15.232512  12.785194  12.585225   # H_
 366 2 7   0.000000  13.872389  11.137071  12.164892   # C_3
 367 2 7   0.000000  12.627678  10.843362  11.310135   # C_3
 368 2 7   0.000000  13.495984  10.982997  13.651423   # C_3
 369 2 7   0.000000  14.971641  10.112659  11.835022   # C_3
 370 2 5   0.000000  11.828090  11.563486  11.516749   # H_
 371 2 5   0.000000  12.234782   9.841490  11.517962   # H_
 372 2 5   0.000000  12.852735  10.890358  10.239205   # H_
 373 2 5   0.000000  12.702891  11.684307  13.934316   # H_
 374 2 5   0.000000  14.358696  11.175076  14.299429   # H_
 375 2 5   0.000000  13.136479   9.970612  13.867903   # H_
 376 2 5   0.000000  15.214916  10.106917  10.767427   # H_
 377 2 5   0.000000  14.654984   9.096864  12.098439   # H_
 378 2 5   0.000000  15.891265  10.327901  12.390431   # H_
 379 1 6   0.000000   7.170619   3.179581  10.350200   # C_2
 380 1 10   0.000000   8.377615   3.528595  10.350200   # O_1
 381 1 10   0.000000   6.821632   1.972577  10.350200   # O_1
 382 1 8   0.000000   6.106606   4.243569  10.350200   # C_R
 383 1 8   0.000000   4.812611   3.816555  10.350200   # C_R
 384 2 9   0.000000   4.371413   2.481447  10.535623   # N_3
 385 1 5   0.000000   2.701603   4.580531  10.350200   # H_
 386 1 8   0.000000   3.817600   4.812543  10.350200   # C_R
 387 1 8   0.000000   4.243585   6.106548  10.350200   # C_R
 388 1 8   0.000000   5.537581   6.532563  10.350200   # C_R
 389 1 8   0.000000   6.533592   5.537574  10.350200   # C_R
 390 1 5   0.000000   7.649589   5.769587  10.350200   # H_
 391 1 5   0.000000   5.769568   7.648566  10.350200   # H_
 392 1 10   0.000000   3.528560   8.377540  10.350200   # O_1
 393 1 6   0.000000   3.179573   7.170536  10.350200   # C_2
 394 1 10   0.000000   1.972577   6.821523  10.350200   # O_1
 395 2 5   0.000000   5.221000   1.913946  10.320927   # H_
 396 2 7   0.000000   4.014984   2.240781  11.939085   # C_3
 397 2 5   0.000000   3.218135   2.929789  12.249540   # H_
 398 2 5   0.000000   4.882312   2.434994  12.585225   # H_
 399 2 7   0.000000   3.522189   0.786871  12.164892   # C_3
 400 2 7   0.000000   2.277478   0.493162  11.310135   # C_3
 401 2 7   0.000000   3.145784   0.632797  13.651423   # C_3
 402 2 7   0.000000   4.621441  20.462859  11.835022   # C_3
 403 2 5   0.000000   1.477890   1.213286  11.516749   # H_
 404 2 5   0.000000   1.884582  20.191690  11.517962   # H_
 405 2 5   0.000000   2.502535   0.540158  10.239205   # H_
 406 2 5   0.000000   2.352691   1.334107  13.934316   # H_
 407 2 5   0.000000   4.008496   0.824876  14.299429   # H_
 408 2 5   0.000000   2.786279  20.320812  13.867903   # H_
 409 2 5   0.000000   4.864716  20.457117  10.767427   # H_
 410 2 5   0.000000   4.304784  19.447064  12.098439   # H_
 411 2 5   0.000000   5.541065  20.678101  12.390431   # H_
 412 1 6   0.000000   7.170619  13.529781   0.000000   # C_2
 413 1 10   0.000000   8.377615  13.878795   0.000000   # O_1
 414 1 10   0.000000   6.821632  12.322777  20.700400   # O_1
 415 1 8   0.000000   6.106606  14.593769   0.000000   # C_R
 416 1 8   0.000000   4.812611  14.166755   0.000000   # C_R
 417 2 9   0.000000   4.371413  12.831647   0.185423   # N_3
 418 1 5   0.000000   2.701603  14.930731   0.000000   # H_
 419 1 8   0.000000   3.817600  15.162743   0.000000   # C_R
 420 1 8   0.000000   4.243585  16.456748   0.000000   # C_R
 421 1 8   0.000000   5.537581  16.882763   0.000000   # C_R
 422 1 8   0.000000   6.533592  15.887774   0.000000   # C_R
 423 1 5   0.000000   7.649589  16.119787   0.000000   # H_
 424 1 5   0.000000   5.769568  17.998766   0.000000   # H_
 425 1 10   0.000000   3.528560  18.727740   0.000000   # O_1
 426 1 6   0.000000   3.179573  17.520736   0.000000   # C_2
 427 1 10   0.000000   1.972577  17.171723   0.000000   # O_1
 428 2 5   0.000000   5.221000  12.264146  20.671127   # H_
 429 2 7   0.000000   4.014984  12.590981   1.588885   # C_3
 430 2 5   0.000000   3.218135  13.279989   1.899340   # H_
 431 2 5   0.000000   4.882312  12.785194   2.235025   # H_
 432 2 7   0.000000   3.522189  11.137071   1.814692   # C_3
 433 2 7   0.000000   2.277478  10.843362   0.959935   # C_3
 434 2 7   0.000000   3.145784  10.982997   3.301223   # C_3
 435 2 7   0.000000   4.621441  10.112659   1.484822   # C_3
 436 2 5   0.000000   1.477890  11.563486   1.166549   # H_
 437 2 5   0.000000   1.884582   9.841490   1.167762   # H_
 438 2 5   0.000000   2.502535  10.890358  20.589405   # H_
 439 2 5   0.000000   2.352691  11.684307   3.584116   # H_
 440 2 5   0.000000   4.008496  11.175076   3.949229   # H_
 441 2 5   0.000000   2.786279   9.970612   3.517703   # H_
 442 2 5   0.000000   4.864716  10.106917   0.417227   # H_
 443 2 5   0.000000   4.304784   9.096864   1.748239   # H_
 444 2 5   0.000000   5.541065  10.327901   2.040231   # H_
 445 1 6   0.000000  17.520819  17.520819   0.000000   # C_2
 446 1 10   0.000000  18.727815  17.171805  20.700400   # O_1
 447 1 10   0.000000  17.171832  18.727823   0.000000   # O_1
 448 1 8   0.000000  16.456806  16.456831   0.000000   # C_R
 449 1 8   0.000000  15.162811  16.883845   0.000000   # C_R
 450 2 9   0.000000  14.721613  18.218953  20.514977   # N_3
 451 1 5   0.000000  13.051803  16.119869   0.000000   # H_
 452 1 8   0.000000  14.167800  15.887857   0.000000   # C_R
 453 1 8   0.000000  14.593785  14.593852   0.000000   # C_R
 454 1 8   0.000000  15.887781  14.167837  20.700400   # C_R
 455 1 8   0.000000  16.883792  15.162826  20.700400   # C_R
 456 1 5   0.000000  17.999789  14.930813  20.700400   # H_
 457 1 5   0.000000  16.119768  13.051834  20.700400   # H_
 458 1 10   0.000000  13.878760  12.322860  20.700400   # O_1
 459 1 6   0.000000  13.529773  13.529864   0.000000   # C_2
 460 1 10   0.000000  12.322777  13.878877   0.000000   # O_1