 (written by mofun)

528 atoms
144 bonds
192 angles
288 dihedrals
0 impropers

10 atom types
3 bond types
3 angle types
4 dihedral types
   0.000000  20.700400 xlo xhi
   0.000000  20.700400 ylo yhi
   0.000000  20.700400 zlo zhi

Masses

 1 91.2240   # Zr3+4
 2 15.9994   # O_3
 3 12.0107   # C_3
 4 1.0079   # H_
 5 1.0079   # H_
 6 12.0107   # C_2
 7 12.0107   # C_R
 8 14.0067   # N_1
 9 14.0067   # N_2
 10 15.9994   # O_1

Pair Coeffs

 1   0.069000   2.783168 # Zr3+4
 2   0.060000   3.118146 # O_3
 3   0.105000   3.430851 # C_3
 4   0.044000   2.571134 # H_
 5 0.044000 2.571134   # H_
 6 0.105000 3.430851   # C_2
 7 0.105000 3.430851   # C_R
 8 0.069000 3.260689   # N_1
 9 0.069000 3.260689   # N_2
 10 0.060000 3.118146   # O_1

Bond Coeffs

 1 578.340382 1.408249   # C_R N_2
 2 1191.726198 1.217189   # N_1 N_2
 3 1272.510326 1.190867   # N_1 N_1

Angle Coeffs

 1 cosine/periodic  286.986588  -1  3   # C_R C_R N_2
 2 fourier  415.282267  0.362835  0.416030  0.287612   # C_R N_2 N_1
 3 cosine/periodic  307.808824  1  1   # N_1 N_1 N_2

Dihedral Coeffs

 1 harmonic 3.368555 -1 2   # H_ C_R C_R N_2 M=4
 2 harmonic 3.368555 -1 2   # C_R C_R C_R N_2 M=4
 3 harmonic 3.368555 -1 2   # C_2 C_R C_R N_2 M=4
 4 harmonic 2.500000 -1 2   # C_R C_R N_2 N_1 M=2

Atoms

 1 1 1   0.000000   2.481771   0.000000   0.000000   # Zr3+4
 2 1 1   0.000000   2.481771  10.350200  10.350200   # Zr3+4
 3 1 1   0.000000  12.831971   0.000000  10.350200   # Zr3+4
 4 1 1   0.000000  12.831971  10.350200   0.000000   # Zr3+4
 5 1 1   0.000000  18.218629   0.000000   0.000000   # Zr3+4
 6 1 1   0.000000  18.218629  10.350200  10.350200   # Zr3+4
 7 1 1   0.000000   7.868429   0.000000  10.350200   # Zr3+4
 8 1 1   0.000000   7.868429  10.350200   0.000000   # Zr3+4
 9 1 1   0.000000   0.000000   2.481771   0.000000   # Zr3+4
 10 1 1   0.000000   0.000000  12.831971  10.350200   # Zr3+4
 11 1 1   0.000000  10.350200   2.481771  10.350200   # Zr3+4
 12 1 1   0.000000  10.350200  12.831971   0.000000   # Zr3+4
 13 1 1   0.000000   0.000000  18.218629   0.000000   # Zr3+4
 14 1 1   0.000000   0.000000   7.868429  10.350200   # Zr3+4
 15 1 1   0.000000  10.350200  18.218629  10.350200   # Zr3+4
 16 1 1   0.000000  10.350200   7.868429   0.000000   # Zr3+4
 17 1 1   0.000000   0.000000   0.000000   2.481771   # Zr3+4
 18 1 1   0.000000   0.000000  10.350200  12.831971   # Zr3+4
 19 1 1   0.000000  10.350200   0.000000  12.831971   # Zr3+4
 20 1 1   0.000000  10.350200  10.350200   2.481771   # Zr3+4
 21 1 1   0.000000   0.000000   0.000000  18.218629   # Zr3+4
 22 1 1   0.000000   0.000000  10.350200   7.868429   # Zr3+4
 23 1 1   0.000000  10.350200   0.000000   7.868429   # Zr3+4
 24 1 1   0.000000  10.350200  10.350200  18.218629   # Zr3+4
 25 1 2   0.000000   1.161292   9.188908   9.188908   # O_3
 26 1 2   0.000000  11.511492  19.539108   9.188908   # O_3
 27 1 2   0.000000  11.511492   9.188908  19.539108   # O_3
 28 1 2   0.000000   9.188908   1.161292   9.188908   # O_3
 29 1 2   0.000000   9.188908  11.511492  19.539108   # O_3
 30 1 2   0.000000  19.539108  19.539108   1.161292   # O_3
 31 1 2   0.000000  19.539108   9.188908  11.511492   # O_3
 32 1 2   0.000000   1.161292   1.161292   1.161292   # O_3
 33 1 2   0.000000  11.511492  11.511492   1.161292   # O_3
 34 1 2   0.000000  19.539108   1.161292   1.161292   # O_3
 35 1 2   0.000000  19.539108  11.511492  11.511492   # O_3
 36 1 2   0.000000   9.188908   1.161292  11.511492   # O_3
 37 1 2   0.000000   9.188908  11.511492   1.161292   # O_3
 38 1 2   0.000000   1.161292  19.539108   1.161292   # O_3
 39 1 2   0.000000   1.161292   9.188908  11.511492   # O_3
 40 1 2   0.000000  11.511492  19.539108  11.511492   # O_3
 41 1 2   0.000000  11.511492   9.188908   1.161292   # O_3
 42 1 2   0.000000  19.539108  19.539108  19.539108   # O_3
 43 1 2   0.000000  19.539108   9.188908   9.188908   # O_3
 44 1 2   0.000000   9.188908  19.539108   9.188908   # O_3
 45 1 2   0.000000   9.188908   9.188908  19.539108   # O_3
 46 1 2   0.000000   1.161292   1.161292  19.539108   # O_3
 47 1 2   0.000000   1.161292  11.511492   9.188908   # O_3
 48 1 2   0.000000  11.511492   1.161292   9.188908   # O_3
 49 1 6   0.000000   3.179581   0.000000  17.520819   # C_2
 50 1 10   0.000000   3.528595   0.000000  18.727815   # O_1
 51 1 10   0.000000   1.972577  20.700400  17.171832   # O_1
 52 1 7   0.000000   4.243569   0.000000  16.456806   # C_R
 53 1 7   0.000000   3.816555  20.700400  15.162811   # C_R
 54 2 9   0.000000   2.505532   0.038607  14.651038   # N_2
 55 1 5   0.000000   4.580531  20.700400  13.051803   # H_
 56 1 7   0.000000   4.812543  20.700400  14.167800   # C_R
 57 1 7   0.000000   6.106548   0.000000  14.593785   # C_R
 58 1 7   0.000000   6.532563   0.000000  15.887781   # C_R
 59 1 7   0.000000   5.537574   0.000000  16.883792   # C_R
 60 1 5   0.000000   5.769587   0.000000  17.999789   # H_
 61 2 9   0.000000   7.843766  20.661532  16.399335   # N_2
 62 1 10   0.000000   8.377540   0.000000  13.878760   # O_1
 63 1 6   0.000000   7.170536   0.000000  13.529773   # C_2
 64 1 10   0.000000   6.821523  20.700400  12.322777   # O_1
 65 2 8   0.000000   1.959286  19.618408  14.666226   # N_1
 66 2 8   0.000000   1.448070  18.596547  14.602118   # N_1
 67 2 8   0.000000   8.390185   1.081648  16.384437   # N_1
 68 2 8   0.000000   8.901621   2.103377  16.448813   # N_1
 69 1 6   0.000000   3.179581  10.350200   7.170619   # C_2
 70 1 10   0.000000   3.528595  10.350200   8.377615   # O_1
 71 1 10   0.000000   1.972577  10.350200   6.821632   # O_1
 72 1 7   0.000000   4.243569  10.350200   6.106606   # C_R
 73 1 7   0.000000   3.816555  10.350200   4.812611   # C_R
 74 2 9   0.000000   2.505532  10.388807   4.300838   # N_2
 75 1 5   0.000000   4.580531  10.350200   2.701603   # H_
 76 1 7   0.000000   4.812543  10.350200   3.817600   # C_R
 77 1 7   0.000000   6.106548  10.350200   4.243585   # C_R
 78 1 7   0.000000   6.532563  10.350200   5.537581   # C_R
 79 1 7   0.000000   5.537574  10.350200   6.533592   # C_R
 80 1 5   0.000000   5.769587  10.350200   7.649589   # H_
 81 2 9   0.000000   7.843766  10.311332   6.049135   # N_2
 82 1 10   0.000000   8.377540  10.350200   3.528560   # O_1
 83 1 6   0.000000   7.170536  10.350200   3.179573   # C_2
 84 1 10   0.000000   6.821523  10.350200   1.972577   # O_1
 85 2 8   0.000000   1.959286   9.268208   4.316026   # N_1
 86 2 8   0.000000   1.448070   8.246347   4.251918   # N_1
 87 2 8   0.000000   8.390185  11.431848   6.034237   # N_1
 88 2 8   0.000000   8.901621  12.453577   6.098613   # N_1
 89 1 6   0.000000  13.529781   0.000000   7.170619   # C_2
 90 1 10   0.000000  13.878795   0.000000   8.377615   # O_1
 91 1 10   0.000000  12.322777  20.700400   6.821632   # O_1
 92 1 7   0.000000  14.593769   0.000000   6.106606   # C_R
 93 1 7   0.000000  14.166755  20.700400   4.812611   # C_R
 94 2 9   0.000000  12.855732   0.038607   4.300838   # N_2
 95 1 5   0.000000  14.930731  20.700400   2.701603   # H_
 96 1 7   0.000000  15.162743  20.700400   3.817600   # C_R
 97 1 7   0.000000  16.456748   0.000000   4.243585   # C_R
 98 1 7   0.000000  16.882763   0.000000   5.537581   # C_R
 99 1 7   0.000000  15.887774   0.000000   6.533592   # C_R
 100 1 5   0.000000  16.119787   0.000000   7.649589   # H_
 101 2 9   0.000000  18.193966  20.661532   6.049135   # N_2
 102 1 10   0.000000  18.727740   0.000000   3.528560   # O_1
 103 1 6   0.000000  17.520736   0.000000   3.179573   # C_2
 104 1 10   0.000000  17.171723  20.700400   1.972577   # O_1
 105 2 8   0.000000  12.309486  19.618408   4.316026   # N_1
 106 2 8   0.000000  11.798270  18.596547   4.251918   # N_1
 107 2 8   0.000000  18.740385   1.081648   6.034237   # N_1
 108 2 8   0.000000  19.251821   2.103377   6.098613   # N_1
 109 1 6   0.000000  13.529781  10.350200  17.520819   # C_2
 110 1 10   0.000000  13.878795  10.350200  18.727815   # O_1
 111 1 10   0.000000  12.322777  10.350200  17.171832   # O_1
 112 1 7   0.000000  14.593769  10.350200  16.456806   # C_R
 113 1 7   0.000000  14.166755  10.350200  15.162811   # C_R
 114 2 9   0.000000  12.855732  10.388807  14.651038   # N_2
 115 1 5   0.000000  14.930731  10.350200  13.051803   # H_
 116 1 7   0.000000  15.162743  10.350200  14.167800   # C_R
 117 1 7   0.000000  16.456748  10.350200  14.593785   # C_R
 118 1 7   0.000000  16.882763  10.350200  15.887781   # C_R
 119 1 7   0.000000  15.887774  10.350200  16.883792   # C_R
 120 1 5   0.000000  16.119787  10.350200  17.999789   # H_
 121 2 9   0.000000  18.193966  10.311332  16.399335   # N_2
 122 1 10   0.000000  18.727740  10.350200  13.878760   # O_1
 123 1 6   0.000000  17.520736  10.350200  13.529773   # C_2
 124 1 10   0.000000  17.171723  10.350200  12.322777   # O_1
 125 2 8   0.000000  12.309486   9.268208  14.666226   # N_1
 126 2 8   0.000000  11.798270   8.246347  14.602118   # N_1
 127 2 8   0.000000  18.740385  11.431848  16.384437   # N_1
 128 2 8   0.000000  19.251821  12.453577  16.448813   # N_1
 129 1 6   0.000000  17.520819   0.000000  17.520819   # C_2
 130 1 10   0.000000  17.171805   0.000000  18.727815   # O_1
 131 1 10   0.000000  18.727823   0.000000  17.171832   # O_1
 132 1 7   0.000000  16.456831   0.000000  16.456806   # C_R
 133 1 7   0.000000  16.883845   0.000000  15.162811   # C_R
 134 2 9   0.000000  18.194868  20.661793  14.651038   # N_2
 135 1 5   0.000000  16.119869   0.000000  13.051803   # H_
 136 1 7   0.000000  15.887857   0.000000  14.167800   # C_R
 137 1 7   0.000000  14.593852   0.000000  14.593785   # C_R
 138 1 7   0.000000  14.167837   0.000000  15.887781   # C_R
 139 1 7   0.000000  15.162826   0.000000  16.883792   # C_R
 140 1 5   0.000000  14.930813   0.000000  17.999789   # H_
 141 2 9   0.000000  12.856634   0.038868  16.399335   # N_2
 142 1 10   0.000000  12.322860   0.000000  13.878760   # O_1
 143 1 6   0.000000  13.529864   0.000000  13.529773   # C_2
 144 1 10   0.000000  13.878877   0.000000  12.322777   # O_1
 145 2 8   0.000000  18.741114   1.081992  14.666226   # N_1
 146 2 8   0.000000  19.252330   2.103853  14.602118   # N_1
 147 2 8   0.000000  12.310215  19.618752  16.384437   # N_1
 148 2 8   0.000000  11.798779  18.597023  16.448813   # N_1
 149 1 6   0.000000  17.520819  10.350200   7.170619   # C_2
 150 1 10   0.000000  17.171805  10.350200   8.377615   # O_1
 151 1 10   0.000000  18.727823  10.350200   6.821632   # O_1
 152 1 7   0.000000  16.456831  10.350200   6.106606   # C_R
 153 1 7   0.000000  16.883845  10.350200   4.812611   # C_R
 154 2 9   0.000000  18.194868  10.311593   4.300838   # N_2
 155 1 5   0.000000  16.119869  10.350200   2.701603   # H_
 156 1 7   0.000000  15.887857  10.350200   3.817600   # C_R
 157 1 7   0.000000  14.593852  10.350200   4.243585   # C_R
 158 1 7   0.000000  14.167837  10.350200   5.537581   # C_R
 159 1 7   0.000000  15.162826  10.350200   6.533592   # C_R
 160 1 5   0.000000  14.930813  10.350200   7.649589   # H_
 161 2 9   0.000000  12.856634  10.389068   6.049135   # N_2
 162 1 10   0.000000  12.322860  10.350200   3.528560   # O_1
 163 1 6   0.000000  13.529864  10.350200   3.179573   # C_2
 164 1 10   0.000000  13.878877  10.350200   1.972577   # O_1
 165 2 8   0.000000  18.741114  11.432192   4.316026   # N_1
 166 2 8   0.000000  19.252330  12.454053   4.251918   # N_1
 167 2 8   0.000000  12.310215   9.268552   6.034238   # N_1
 168 2 8   0.000000  11.798779   8.246823   6.098613   # N_1
 169 1 6   0.000000   7.170619   0.000000   7.170619   # C_2
 170 1 10   0.000000   6.821605   0.000000   8.377615   # O_1
 171 1 10   0.000000   8.377623   0.000000   6.821632   # O_1
 172 1 7   0.000000   6.106631   0.000000   6.106606   # C_R
 173 1 7   0.000000   6.533645   0.000000   4.812611   # C_R
 174 2 9   0.000000   7.844668  20.661793   4.300838   # N_2
 175 1 5   0.000000   5.769669   0.000000   2.701603   # H_
 176 1 7   0.000000   5.537657   0.000000   3.817600   # C_R
 177 1 7   0.000000   4.243652   0.000000   4.243585   # C_R
 178 1 7   0.000000   3.817637   0.000000   5.537581   # C_R
 179 1 7   0.000000   4.812626   0.000000   6.533592   # C_R
 180 1 5   0.000000   4.580613   0.000000   7.649589   # H_
 181 2 9   0.000000   2.506434   0.038868   6.049135   # N_2
 182 1 10   0.000000   1.972660   0.000000   3.528560   # O_1
 183 1 6   0.000000   3.179664   0.000000   3.179573   # C_2
 184 1 10   0.000000   3.528677   0.000000   1.972577   # O_1
 185 2 8   0.000000   8.390914   1.081992   4.316026   # N_1
 186 2 8   0.000000   8.902130   2.103853   4.251918   # N_1
 187 2 8   0.000000   1.960015  19.618752   6.034237   # N_1
 188 2 8   0.000000   1.448579  18.597023   6.098613   # N_1
 189 1 6   0.000000   7.170619  10.350200  17.520819   # C_2
 190 1 10   0.000000   6.821605  10.350200  18.727815   # O_1
 191 1 10   0.000000   8.377623  10.350200  17.171832   # O_1
 192 1 7   0.000000   6.106631  10.350200  16.456806   # C_R
 193 1 7   0.000000   6.533645  10.350200  15.162811   # C_R
 194 2 9   0.000000   7.844668  10.311593  14.651038   # N_2
 195 1 5   0.000000   5.769669  10.350200  13.051803   # H_
 196 1 7   0.000000   5.537657  10.350200  14.167800   # C_R
 197 1 7   0.000000   4.243652  10.350200  14.593785   # C_R
 198 1 7   0.000000   3.817637  10.350200  15.887781   # C_R
 199 1 7   0.000000   4.812626  10.350200  16.883792   # C_R
 200 1 5   0.000000   4.580613  10.350200  17.999789   # H_
 201 2 9   0.000000   2.506434  10.389068  16.399335   # N_2
 202 1 10   0.000000   1.972660  10.350200  13.878760   # O_1
 203 1 6   0.000000   3.179664  10.350200  13.529773   # C_2
 204 1 10   0.000000   3.528677  10.350200  12.322777   # O_1
 205 2 8   0.000000   8.390914  11.432192  14.666226   # N_1
 206 2 8   0.000000   8.902130  12.454053  14.602118   # N_1
 207 2 8   0.000000   1.960015   9.268552  16.384437   # N_1
 208 2 8   0.000000   1.448579   8.246823  16.448813   # N_1
 209 1 6   0.000000  17.520819   3.179581   0.000000   # C_2
 210 1 10   0.000000  18.727815   3.528595  20.700400   # O_1
 211 1 10   0.000000  17.171832   1.972577   0.000000   # O_1
 212 1 7   0.000000  16.456806   4.243569  20.700400   # C_R
 213 1 7   0.000000  15.162811   3.816555   0.000000   # C_R
 214 2 9   0.000000  14.651038   2.505532   0.038607   # N_2
 215 1 5   0.000000  13.051803   4.580531   0.000000   # H_
 216 1 7   0.000000  14.167800   4.812543   0.000000   # C_R
 217 1 7   0.000000  14.593785   6.106548  20.700400   # C_R
 218 1 7   0.000000  15.887781   6.532563  20.700400   # C_R
 219 1 7   0.000000  16.883792   5.537574  20.700400   # C_R
 220 1 5   0.000000  17.999789   5.769587  20.700400   # H_
 221 2 9   0.000000  16.399335   7.843766  20.661532   # N_2
 222 1 10   0.000000  13.878760   8.377540  20.700400   # O_1
 223 1 6   0.000000  13.529773   7.170536  20.700400   # C_2
 224 1 10   0.000000  12.322777   6.821523   0.000000   # O_1
 225 2 8   0.000000  14.666226   1.959286  19.618408   # N_1
 226 2 8   0.000000  14.602118   1.448070  18.596547   # N_1
 227 2 8   0.000000  16.384437   8.390185   1.081648   # N_1
 228 2 8   0.000000  16.448813   8.901621   2.103377   # N_1
 229 1 6   0.000000  17.520819  13.529781  10.350200   # C_2
 230 1 10   0.000000  18.727815  13.878795  10.350200   # O_1
 231 1 10   0.000000  17.171832  12.322777  10.350200   # O_1
 232 1 7   0.000000  16.456806  14.593769  10.350200   # C_R
 233 1 7   0.000000  15.162811  14.166755  10.350200   # C_R
 234 2 9   0.000000  14.651038  12.855732  10.388807   # N_2
 235 1 5   0.000000  13.051803  14.930731  10.350200   # H_
 236 1 7   0.000000  14.167800  15.162743  10.350200   # C_R
 237 1 7   0.000000  14.593785  16.456748  10.350200   # C_R
 238 1 7   0.000000  15.887781  16.882763  10.350200   # C_R
 239 1 7   0.000000  16.883792  15.887774  10.350200   # C_R
 240 1 5   0.000000  17.999789  16.119787  10.350200   # H_
 241 2 9   0.000000  16.399335  18.193966  10.311332   # N_2
 242 1 10   0.000000  13.878760  18.727740  10.350200   # O_1
 243 1 6   0.000000  13.529773  17.520736  10.350200   # C_2
 244 1 10   0.000000  12.322777  17.171723  10.350200   # O_1
 245 2 8   0.000000  14.666226  12.309486   9.268208   # N_1
 246 2 8   0.000000  14.602118  11.798270   8.246347   # N_1
 247 2 8   0.000000  16.384437  18.740385  11.431848   # N_1
 248 2 8   0.000000  16.448813  19.251821  12.453577   # N_1
 249 1 6   0.000000   7.170619   3.179581  10.350200   # C_2
 250 1 10   0.000000   8.377615   3.528595  10.350200   # O_1
 251 1 10   0.000000   6.821632   1.972577  10.350200   # O_1
 252 1 7   0.000000   6.106606   4.243569  10.350200   # C_R
 253 1 7   0.000000   4.812611   3.816555  10.350200   # C_R
 254 2 9   0.000000   4.300838   2.505532  10.388807   # N_2
 255 1 5   0.000000   2.701603   4.580531  10.350200   # H_
 256 1 7   0.000000   3.817600   4.812543  10.350200   # C_R
 257 1 7   0.000000   4.243585   6.106548  10.350200   # C_R
 258 1 7   0.000000   5.537581   6.532563  10.350200   # C_R
 259 1 7   0.000000   6.533592   5.537574  10.350200   # C_R
 260 1 5   0.000000   7.649589   5.769587  10.350200   # H_
 261 2 9   0.000000   6.049135   7.843766  10.311332   # N_2
 262 1 10   0.000000   3.528560   8.377540  10.350200   # O_1
 263 1 6   0.000000   3.179573   7.170536  10.350200   # C_2
 264 1 10   0.000000   1.972577   6.821523  10.350200   # O_1
 265 2 8   0.000000   4.316026   1.959286   9.268208   # N_1
 266 2 8   0.000000   4.251918   1.448070   8.246347   # N_1
 267 2 8   0.000000   6.034237   8.390185  11.431848   # N_1
 268 2 8   0.000000   6.098613   8.901621  12.453577   # N_1
 269 1 6   0.000000   7.170619  13.529781   0.000000   # C_2
 270 1 10   0.000000   8.377615  13.878795   0.000000   # O_1
 271 1 10   0.000000   6.821632  12.322777  20.700400   # O_1
 272 1 7   0.000000   6.106606  14.593769   0.000000   # C_R
 273 1 7   0.000000   4.812611  14.166755   0.000000   # C_R
 274 2 9   0.000000   4.300838  12.855732   0.038607   # N_2
 275 1 5   0.000000   2.701603  14.930731   0.000000   # H_
 276 1 7   0.000000   3.817600  15.162743   0.000000   # C_R
 277 1 7   0.000000   4.243585  16.456748   0.000000   # C_R
 278 1 7   0.000000   5.537581  16.882763   0.000000   # C_R
 279 1 7   0.000000   6.533592  15.887774   0.000000   # C_R
 280 1 5   0.000000   7.649589  16.119787   0.000000   # H_
 281 2 9   0.000000   6.049135  18.193966  20.661532   # N_2
 282 1 10   0.000000   3.528560  18.727740   0.000000   # O_1
 283 1 6   0.000000   3.179573  17.520736   0.000000   # C_2
 284 1 10   0.000000   1.972577  17.171723   0.000000   # O_1
 285 2 8   0.000000   4.316026  12.309486  19.618408   # N_1
 286 2 8   0.000000   4.251918  11.798270  18.596547   # N_1
 287 2 8   0.000000   6.034237  18.740385   1.081648   # N_1
 288 2 8   0.000000   6.098613  19.251821   2.103377   # N_1
 289 1 6   0.000000  17.520819  17.520819   0.000000   # C_2
 290 1 10   0.000000  18.727815  17.171805  20.700400   # O_1
 291 1 10   0.000000  17.171832  18.727823   0.000000   # O_1
 292 1 7   0.000000  16.456806  16.456831   0.000000   # C_R
 293 1 7   0.000000  15.162811  16.883845   0.000000   # C_R
 294 2 9   0.000000  14.651038  18.194868  20.661793   # N_2
 295 1 5   0.000000  13.051803  16.119869   0.000000   # H_
 296 1 7   0.000000  14.167800  15.887857   0.000000   # C_R
 297 1 7   0.000000  14.593785  14.593852   0.000000   # C_R
 298 1 7   0.000000  15.887781  14.167837  20.700400   # C_R
 299 1 7   0.000000  16.883792  15.162826  20.700400   # C_R
 300 1 5   0.000000  17.999789  14.930813  20.700400   # H_
 301 2 9   0.000000  16.399335  12.856634   0.038868   # N_2
 302 1 10   0.000000  13.878760  12.322860  20.700400   # O_1
 303 1 6   0.000000  13.529773  13.529864   0.000000   # C_2
 304 1 10   0.000000  12.322777  13.878877   0.000000   # O_1
 305 2 8   0.000000  14.666226  18.741114   1.081992   # N_1
 306 2 8   0.000000  14.602118  19.252330   2.103853   # N_1
 307 2 8   0.000000  16.384437  12.310215  19.618752   # N_1
 308 2 8   0.000000  16.448813  11.798779  18.597023   # N_1
 309 1 6   0.000000  17.520819   7.170619  10.350200   # C_2
 310 1 10   0.000000  18.727815   6.821605  10.350200   # O_1
 311 1 10   0.000000  17.171832   8.377623  10.350200   # O_1
 312 1 7   0.000000  16.456806   6.106631  10.350200   # C_R
 313 1 7   0.000000  15.162811   6.533645  10.350200   # C_R
 314 2 9   0.000000  14.651038   7.844668  10.311593   # N_2
 315 1 5   0.000000  13.051803   5.769669  10.350200   # H_
 316 1 7   0.000000  14.167800   5.537657  10.350200   # C_R
 317 1 7   0.000000  14.593785   4.243652  10.350200   # C_R
 318 1 7   0.000000  15.887781   3.817637  10.350200   # C_R
 319 1 7   0.000000  16.883792   4.812626  10.350200   # C_R
 320 1 5   0.000000  17.999789   4.580613  10.350200   # H_
 321 2 9   0.000000  16.399335   2.506434  10.389068   # N_2
 322 1 10   0.000000  13.878760   1.972660  10.350200   # O_1
 323 1 6   0.000000  13.529773   3.179664  10.350200   # C_2
 324 1 10   0.000000  12.322777   3.528677  10.350200   # O_1
 325 2 8   0.000000  14.666226   8.390914  11.432192   # N_1
 326 2 8   0.000000  14.602118   8.902130  12.454053   # N_1
 327 2 8   0.000000  16.384437   1.960015   9.268552   # N_1
 328 2 8   0.000000  16.448813   1.448579   8.246823   # N_1
 329 1 6   0.000000   7.170619  17.520819  10.350200   # C_2
 330 1 10   0.000000   8.377615  17.171805  10.350200   # O_1
 331 1 10   0.000000   6.821632  18.727823  10.350200   # O_1
 332 1 7   0.000000   6.106606  16.456831  10.350200   # C_R
 333 1 7   0.000000   4.812611  16.883845  10.350200   # C_R
 334 2 9   0.000000   4.300838  18.194868  10.311593   # N_2
 335 1 5   0.000000   2.701603  16.119869  10.350200   # H_
 336 1 7   0.000000   3.817600  15.887857  10.350200   # C_R
 337 1 7   0.000000   4.243585  14.593852  10.350200   # C_R
 338 1 7   0.000000   5.537581  14.167837  10.350200   # C_R
 339 1 7   0.000000   6.533592  15.162826  10.350200   # C_R
 340 1 5   0.000000   7.649589  14.930813  10.350200   # H_
 341 2 9   0.000000   6.049135  12.856634  10.389068   # N_2
 342 1 10   0.000000   3.528560  12.322860  10.350200   # O_1
 343 1 6   0.000000   3.179573  13.529864  10.350200   # C_2
 344 1 10   0.000000   1.972577  13.878877  10.350200   # O_1
 345 2 8   0.000000   4.316026  18.741114  11.432192   # N_1
 346 2 8   0.000000   4.251918  19.252330  12.454053   # N_1
 347 2 8   0.000000   6.034237  12.310215   9.268552   # N_1
 348 2 8   0.000000   6.098613  11.798779   8.246823   # N_1
 349 1 6   0.000000   7.170619   7.170619   0.000000   # C_2
 350 1 10   0.000000   8.377615   6.821605  20.700400   # O_1
 351 1 10   0.000000   6.821632   8.377623   0.000000   # O_1
 352 1 7   0.000000   6.106606   6.106631   0.000000   # C_R
 353 1 7   0.000000   4.812611   6.533645   0.000000   # C_R
 354 2 9   0.000000   4.300838   7.844668  20.661793   # N_2
 355 1 5   0.000000   2.701603   5.769669   0.000000   # H_
 356 1 7   0.000000   3.817600   5.537657   0.000000   # C_R
 357 1 7   0.000000   4.243585   4.243652   0.000000   # C_R
 358 1 7   0.000000   5.537581   3.817637   0.000000   # C_R
 359 1 7   0.000000   6.533592   4.812626  20.700400   # C_R
 360 1 5   0.000000   7.649589   4.580613   0.000000   # H_
 361 2 9   0.000000   6.049135   2.506434   0.038868   # N_2
 362 1 10   0.000000   3.528560   1.972660   0.000000   # O_1
 363 1 6   0.000000   3.179573   3.179664   0.000000   # C_2
 364 1 10   0.000000   1.972577   3.528677   0.000000   # O_1
 365 2 8   0.000000   4.316026   8.390914   1.081992   # N_1
 366 2 8   0.000000   4.251918   8.902130   2.103853   # N_1
 367 2 8   0.000000   6.034237   1.960015  19.618752   # N_1
 368 2 8   0.000000   6.098613   1.448579  18.597023   # N_1
 369 1 6   0.000000   0.000000  17.520819   3.179581   # C_2
 370 1 10   0.000000   0.000000  18.727815   3.528595   # O_1
 371 1 10   0.000000  20.700400  17.171832   1.972577   # O_1
 372 1 7   0.000000   0.000000  16.456806   4.243569   # C_R
 373 1 7   0.000000   0.000000  15.162811   3.816555   # C_R
 374 2 9   0.000000   0.038607  14.651038   2.505532   # N_2
 375 1 5   0.000000   0.000000  13.051803   4.580531   # H_
 376 1 7   0.000000   0.000000  14.167800   4.812543   # C_R
 377 1 7   0.000000   0.000000  14.593785   6.106548   # C_R
 378 1 7   0.000000   0.000000  15.887781   6.532563   # C_R
 379 1 7   0.000000   0.000000  16.883792   5.537574   # C_R
 380 1 5   0.000000   0.000000  17.999789   5.769587   # H_
 381 2 9   0.000000  20.661532  16.399335   7.843766   # N_2
 382 1 10   0.000000   0.000000  13.878760   8.377540   # O_1
 383 1 6   0.000000   0.000000  13.529773   7.170536   # C_2
 384 1 10   0.000000   0.000000  12.322777   6.821523   # O_1
 385 2 8   0.000000  19.618408  14.666226   1.959286   # N_1
 386 2 8   0.000000  18.596547  14.602118   1.448070   # N_1
 387 2 8   0.000000   1.081648  16.384437   8.390185   # N_1
 388 2 8   0.000000   2.103377  16.448813   8.901621   # N_1
 389 1 6   0.000000   0.000000   7.170619  13.529781   # C_2
 390 1 10   0.000000   0.000000   8.377615  13.878795   # O_1
 391 1 10   0.000000  20.700400   6.821632  12.322777   # O_1
 392 1 7   0.000000   0.000000   6.106606  14.593769   # C_R
 393 1 7   0.000000   0.000000   4.812611  14.166755   # C_R
 394 2 9   0.000000   0.038607   4.300838  12.855732   # N_2
 395 1 5   0.000000   0.000000   2.701603  14.930731   # H_
 396 1 7   0.000000   0.000000   3.817600  15.162743   # C_R
 397 1 7   0.000000   0.000000   4.243585  16.456748   # C_R
 398 1 7   0.000000   0.000000   5.537581  16.882763   # C_R
 399 1 7   0.000000   0.000000   6.533592  15.887774   # C_R
 400 1 5   0.000000   0.000000   7.649589  16.119787   # H_
 401 2 9   0.000000  20.661532   6.049135  18.193966   # N_2
 402 1 10   0.000000   0.000000   3.528560  18.727740   # O_1
 403 1 6   0.000000   0.000000   3.179573  17.520736   # C_2
 404 1 10   0.000000   0.000000   1.972577  17.171723   # O_1
 405 2 8   0.000000  19.618408   4.316026  12.309486   # N_1
 406 2 8   0.000000  18.596547   4.251918  11.798270   # N_1
 407 2 8   0.000000   1.081648   6.034237  18.740385   # N_1
 408 2 8   0.000000   2.103377   6.098613  19.251821   # N_1
 409 1 6   0.000000  10.350200  17.520819  13.529781   # C_2
 410 1 10   0.000000  10.350200  18.727815  13.878795   # O_1
 411 1 10   0.000000  10.350200  17.171832  12.322777   # O_1
 412 1 7   0.000000  10.350200  16.456806  14.593769   # C_R
 413 1 7   0.000000  10.350200  15.162811  14.166755   # C_R
 414 2 9   0.000000  10.388807  14.651038  12.855732   # N_2
 415 1 5   0.000000  10.350200  13.051803  14.930731   # H_
 416 1 7   0.000000  10.350200  14.167800  15.162743   # C_R
 417 1 7   0.000000  10.350200  14.593785  16.456748   # C_R
 418 1 7   0.000000  10.350200  15.887781  16.882763   # C_R
 419 1 7   0.000000  10.350200  16.883792  15.887774   # C_R
 420 1 5   0.000000  10.350200  17.999789  16.119787   # H_
 421 2 9   0.000000  10.311332  16.399335  18.193966   # N_2
 422 1 10   0.000000  10.350200  13.878760  18.727740   # O_1
 423 1 6   0.000000  10.350200  13.529773  17.520736   # C_2
 424 1 10   0.000000  10.350200  12.322777  17.171723   # O_1
 425 2 8   0.000000   9.268208  14.666226  12.309486   # N_1
 426 2 8   0.000000   8.246347  14.602118  11.798270   # N_1
 427 2 8   0.000000  11.431848  16.384437  18.740385   # N_1
 428 2 8   0.000000  12.453577  16.448813  19.251821   # N_1
 429 1 6   0.000000  10.350200   7.170619   3.179581   # C_2
 430 1 10   0.000000  10.350200   8.377615   3.528595   # O_1
 431 1 10   0.000000  10.350200   6.821632   1.972577   # O_1
 432 1 7   0.000000  10.350200   6.106606   4.243569   # C_R
 433 1 7   0.000000  10.350200   4.812611   3.816555   # C_R
 434 2 9   0.000000  10.388807   4.300838   2.505532   # N_2
 435 1 5   0.000000  10.350200   2.701603   4.580531   # H_
 436 1 7   0.000000  10.350200   3.817600   4.812543   # C_R
 437 1 7   0.000000  10.350200   4.243585   6.106548   # C_R
 438 1 7   0.000000  10.350200   5.537581   6.532563   # C_R
 439 1 7   0.000000  10.350200   6.533592   5.537574   # C_R
 440 1 5   0.000000  10.350200   7.649589   5.769587   # H_
 441 2 9   0.000000  10.311332   6.049135   7.843766   # N_2
 442 1 10   0.000000  10.350200   3.528560   8.377540   # O_1
 443 1 6   0.000000  10.350200   3.179573   7.170536   # C_2
 444 1 10   0.000000  10.350200   1.972577   6.821523   # O_1
 445 2 8   0.000000   9.268208   4.316026   1.959286   # N_1
 446 2 8   0.000000   8.246347   4.251918   1.448070   # N_1
 447 2 8   0.000000  11.431848   6.034237   8.390185   # N_1
 448 2 8   0.000000  12.453577   6.098613   8.901621   # N_1
 449 1 6   0.000000   0.000000  17.520819  17.520819   # C_2
 450 1 10   0.000000  20.700400  18.727815  17.171805   # O_1
 451 1 10   0.000000   0.000000  17.171832  18.727823   # O_1
 452 1 7   0.000000  20.700400  16.456806  16.456831   # C_R
 453 1 7   0.000000   0.000000  15.162811  16.883845   # C_R
 454 2 9   0.000000  20.661793  14.651038  18.194868   # N_2
 455 1 5   0.000000   0.000000  13.051803  16.119869   # H_
 456 1 7   0.000000   0.000000  14.167800  15.887857   # C_R
 457 1 7   0.000000   0.000000  14.593785  14.593852   # C_R
 458 1 7   0.000000  20.700400  15.887781  14.167837   # C_R
 459 1 7   0.000000   0.000000  16.883792  15.162826   # C_R
 460 1 5   0.000000  20.700400  17.999789  14.930813   # H_
 461 2 9   0.000000   0.038868  16.399335  12.856634   # N_2
 462 1 10   0.000000   0.000000  13.878760  12.322860   # O_1
 463 1 6   0.000000   0.000000  13.529773  13.529864   # C_2
 464 1 10   0.000000   0.000000  12.322777  13.878877   # O_1
 465 2 8   0.000000   1.081992  14.666226  18.741114   # N_1
 466 2 8   0.000000   2.103853  14.602118  19.252330   # N_1
 467 2 8   0.000000  19.618752  16.384437  12.310215   # N_1
 468 2 8   0.000000  18.597023  16.448813  11.798779   # N_1
 469 1 6   0.000000   0.000000   7.170619   7.170619   # C_2
 470 1 10   0.000000   0.000000   8.377615   6.821605   # O_1
 471 1 10   0.000000   0.000000   6.821632   8.377623   # O_1