 (written by mofun)

728 atoms
72 bonds
96 angles
144 dihedrals
0 impropers

10 atom types
3 bond types
3 angle types
3 dihedral types
   0.000000  26.896000 xlo xhi
   0.000000  26.896000 ylo yhi
   0.000000  26.896000 zlo zhi

Masses

 1 91.2240   # Zr3+4
 2 15.9994   # O_3
 3 12.0107   # C_3
 4 1.0079   # H_
 5 1.0079   # H_
 6 12.0107   # C_2
 7 12.0107   # C_R
 8 14.0067   # N_1
 9 14.0067   # N_2
 10 15.9994   # O_1

Pair Coeffs

 1   0.069000   2.783168 # Zr3+4
 2   0.060000   3.118146 # O_3
 3   0.105000   3.430851 # C_3
 4   0.044000   2.571134 # H_
 5 0.044000 2.571134   # H_
 6 0.105000 3.430851   # C_2
 7 0.105000 3.430851   # C_R
 8 0.069000 3.260689   # N_1
 9 0.069000 3.260689   # N_2
 10 0.060000 3.118146   # O_1

Bond Coeffs

 1 578.340382 1.408249   # C_R N_2
 2 1191.726198 1.217189   # N_1 N_2
 3 1272.510326 1.190867   # N_1 N_1

Angle Coeffs

 1 cosine/periodic  286.986588  -1  3   # C_R C_R N_2
 2 fourier  415.282267  0.362835  0.416030  0.287612   # C_R N_2 N_1
 3 cosine/periodic  307.808824  1  1   # N_1 N_1 N_2

Dihedral Coeffs

 1 harmonic 3.368555 -1 2   # C_R C_R C_R N_2 M=4
 2 harmonic 3.368555 -1 2   # H_ C_R C_R N_2 M=4
 3 harmonic 2.500000 -1 2   # C_R C_R N_2 N_1 M=2

Atoms

 1 1 1   0.000000   2.475508   0.000000   0.000000   # Zr3+4
 2 1 1   0.000000  24.420492   0.000000   0.000000   # Zr3+4
 3 1 1   0.000000   0.000000   2.475508   0.000000   # Zr3+4
 4 1 1   0.000000   0.000000  24.420492   0.000000   # Zr3+4
 5 1 1   0.000000   0.000000   0.000000   2.475508   # Zr3+4
 6 1 1   0.000000   0.000000   0.000000  24.420492   # Zr3+4
 7 1 1   0.000000   2.475508  13.448000  13.448000   # Zr3+4
 8 1 1   0.000000  24.420492  13.448000  13.448000   # Zr3+4
 9 1 1   0.000000   0.000000  15.923508  13.448000   # Zr3+4
 10 1 1   0.000000   0.000000  10.972492  13.448000   # Zr3+4
 11 1 1   0.000000   0.000000  13.448000  15.923508   # Zr3+4
 12 1 1   0.000000   0.000000  13.448000  10.972492   # Zr3+4
 13 1 1   0.000000  15.923508   0.000000  13.448000   # Zr3+4
 14 1 1   0.000000  10.972492   0.000000  13.448000   # Zr3+4
 15 1 1   0.000000  13.448000   2.475508  13.448000   # Zr3+4
 16 1 1   0.000000  13.448000  24.420492  13.448000   # Zr3+4
 17 1 1   0.000000  13.448000   0.000000  15.923508   # Zr3+4
 18 1 1   0.000000  13.448000   0.000000  10.972492   # Zr3+4
 19 1 1   0.000000  15.923508  13.448000   0.000000   # Zr3+4
 20 1 1   0.000000  10.972492  13.448000   0.000000   # Zr3+4
 21 1 1   0.000000  13.448000  15.923508   0.000000   # Zr3+4
 22 1 1   0.000000  13.448000  10.972492   0.000000   # Zr3+4
 23 1 1   0.000000  13.448000  13.448000   2.475508   # Zr3+4
 24 1 1   0.000000  13.448000  13.448000  24.420492   # Zr3+4
 25 1 2   0.000000   1.221078   1.221078   1.221078   # O_3
 26 1 2   0.000000  25.674922  25.674922   1.221078   # O_3
 27 1 2   0.000000  25.674922   1.221078  25.674922   # O_3
 28 1 2   0.000000   1.221078  25.674922  25.674922   # O_3
 29 1 2   0.000000   1.221078   1.221078  25.674922   # O_3
 30 1 2   0.000000  25.674922  25.674922  25.674922   # O_3
 31 1 2   0.000000   1.221078  25.674922   1.221078   # O_3
 32 1 2   0.000000  25.674922   1.221078   1.221078   # O_3
 33 1 2   0.000000   1.221078  14.669078  14.669078   # O_3
 34 1 2   0.000000  25.674922  12.226922  14.669078   # O_3
 35 1 2   0.000000  25.674922  14.669078  12.226922   # O_3
 36 1 2   0.000000   1.221078  12.226922  12.226922   # O_3
 37 1 2   0.000000   1.221078  14.669078  12.226922   # O_3
 38 1 2   0.000000  25.674922  12.226922  12.226922   # O_3
 39 1 2   0.000000   1.221078  12.226922  14.669078   # O_3
 40 1 2   0.000000  25.674922  14.669078  14.669078   # O_3
 41 1 2   0.000000  14.669078   1.221078  14.669078   # O_3
 42 1 2   0.000000  12.226922  25.674922  14.669078   # O_3
 43 1 2   0.000000  12.226922   1.221078  12.226922   # O_3
 44 1 2   0.000000  14.669078  25.674922  12.226922   # O_3
 45 1 2   0.000000  14.669078   1.221078  12.226922   # O_3
 46 1 2   0.000000  12.226922  25.674922  12.226922   # O_3
 47 1 2   0.000000  14.669078  25.674922  14.669078   # O_3
 48 1 2   0.000000  12.226922   1.221078  14.669078   # O_3
 49 1 2   0.000000  14.669078  14.669078   1.221078   # O_3
 50 1 2   0.000000  12.226922  12.226922   1.221078   # O_3
 51 1 2   0.000000  12.226922  14.669078  25.674922   # O_3
 52 1 2   0.000000  14.669078  12.226922  25.674922   # O_3
 53 1 2   0.000000  14.669078  14.669078  25.674922   # O_3
 54 1 2   0.000000  12.226922  12.226922  25.674922   # O_3
 55 1 2   0.000000  14.669078  12.226922   1.221078   # O_3
 56 1 2   0.000000  12.226922  14.669078   1.221078   # O_3
 57 1 10   0.000000   3.566410   0.000000   1.933822   # O_1
 58 1 6   0.000000   3.152211   0.000000   3.152223   # C_2
 59 1 10   0.000000   1.933811  26.896000   3.566424   # O_1
 60 1 7   0.000000   4.209211   0.000000   4.209222   # C_R
 61 1 7   0.000000   5.535211   0.000000   3.891921   # C_R
 62 1 7   0.000000   3.891912   0.000000   5.535222   # C_R
 63 1 7   0.000000   6.508812   0.000000   4.827820   # C_R
 64 1 5   0.000000   5.780010  26.896000   2.996221   # H_
 65 1 7   0.000000   4.827813  26.896000   6.508821   # C_R
 66 1 5   0.000000   2.996212  26.896000   5.780023   # H_
 67 1 7   0.000000   6.204913   0.000000   6.204920   # C_R
 68 1 7   0.000000   7.243114  26.896000   7.243120   # C_R
 69 1 5   0.000000   7.399112   0.000000   4.558920   # H_
 70 1 7   0.000000   8.620213   0.000000   6.939219   # C_R
 71 1 5   0.000000   4.558914   0.000000   7.399122   # H_
 72 1 7   0.000000   6.939215   0.000000   8.620220   # C_R
 73 1 7   0.000000   9.556114   0.000000   7.912818   # C_R
 74 2 9   0.000000   9.487428  26.896000   5.803831   # N_2
 75 1 7   0.000000   7.912815   0.000000   9.556119   # C_R
 76 1 5   0.000000   6.048915   0.000000   8.889121   # H_
 77 1 7   0.000000   9.238815  26.896000   9.238818   # C_R
 78 1 6   0.000000  10.295816  26.896000  10.295817   # C_2
 79 1 5   0.000000  10.451814   0.000000   7.668017   # H_
 80 1 5   0.000000   7.668016   0.000000  10.451819   # H_
 81 1 10   0.000000  11.514216   0.000000   9.881616   # O_1
 82 1 10   0.000000   9.881617   0.000000  11.514218   # O_1
 83 2 8   0.000000   9.393475  26.896000   4.584613   # N_1
 84 2 8   0.000000   9.443571   0.000000   3.442361   # N_1
 85 1 10   0.000000  23.329590   0.000000   1.933822   # O_1
 86 1 6   0.000000  23.743789   0.000000   3.152223   # C_2
 87 1 10   0.000000  24.962189   0.000000   3.566424   # O_1
 88 1 7   0.000000  22.686789   0.000000   4.209222   # C_R
 89 1 7   0.000000  21.360789  26.896000   3.891921   # C_R
 90 1 7   0.000000  23.004088   0.000000   5.535222   # C_R
 91 1 7   0.000000  20.387188  26.896000   4.827820   # C_R
 92 1 5   0.000000  21.115990  26.896000   2.996221   # H_
 93 1 7   0.000000  22.068187   0.000000   6.508821   # C_R
 94 1 5   0.000000  23.899788   0.000000   5.780023   # H_
 95 1 7   0.000000  20.691087   0.000000   6.204920   # C_R
 96 1 7   0.000000  19.652886  26.896000   7.243120   # C_R
 97 1 5   0.000000  19.496888  26.896000   4.558920   # H_
 98 1 7   0.000000  18.275787  26.896000   6.939219   # C_R
 99 1 5   0.000000  22.337086   0.000000   7.399122   # H_
 100 1 7   0.000000  19.956785   0.000000   8.620220   # C_R
 101 1 7   0.000000  17.339886  26.896000   7.912818   # C_R
 102 2 9   0.000000  17.408572  26.896000   5.803831   # N_2
 103 1 7   0.000000  18.983185   0.000000   9.556119   # C_R
 104 1 5   0.000000  20.847085   0.000000   8.889121   # H_
 105 1 7   0.000000  17.657185  26.896000   9.238818   # C_R
 106 1 6   0.000000  16.600184  26.896000  10.295817   # C_2
 107 1 5   0.000000  16.444186  26.896000   7.668017   # H_
 108 1 5   0.000000  19.227984   0.000000  10.451819   # H_
 109 1 10   0.000000  15.381784  26.896000   9.881616   # O_1
 110 1 10   0.000000  17.014383  26.896000  11.514218   # O_1
 111 2 8   0.000000  17.502525  26.896000   4.584613   # N_1
 112 2 8   0.000000  17.452429  26.896000   3.442361   # N_1
 113 1 10   0.000000  23.329590   0.000000  24.962178   # O_1
 114 1 6   0.000000  23.743789   0.000000  23.743777   # C_2
 115 1 10   0.000000  24.962189   0.000000  23.329576   # O_1
 116 1 7   0.000000  22.686789   0.000000  22.686778   # C_R
 117 1 7   0.000000  21.360789  26.896000  23.004079   # C_R
 118 1 7   0.000000  23.004088   0.000000  21.360778   # C_R
 119 1 7   0.000000  20.387188  26.896000  22.068180   # C_R
 120 1 5   0.000000  21.115990  26.896000  23.899779   # H_
 121 1 7   0.000000  22.068187   0.000000  20.387179   # C_R
 122 1 5   0.000000  23.899788   0.000000  21.115977   # H_
 123 1 7   0.000000  20.691087   0.000000  20.691080   # C_R
 124 1 7   0.000000  19.652886  26.896000  19.652880   # C_R
 125 1 5   0.000000  19.496888  26.896000  22.337080   # H_
 126 1 7   0.000000  18.275787  26.896000  19.956781   # C_R
 127 1 5   0.000000  22.337086   0.000000  19.496878   # H_
 128 1 7   0.000000  19.956785   0.000000  18.275780   # C_R
 129 1 7   0.000000  17.339886  26.896000  18.983182   # C_R
 130 2 9   0.000000  17.408572  26.896000  21.092169   # N_2
 131 1 7   0.000000  18.983185   0.000000  17.339881   # C_R
 132 1 5   0.000000  20.847085   0.000000  18.006879   # H_
 133 1 7   0.000000  17.657185  26.896000  17.657182   # C_R
 134 1 6   0.000000  16.600184  26.896000  16.600183   # C_2
 135 1 5   0.000000  16.444186  26.896000  19.227983   # H_
 136 1 5   0.000000  19.227984   0.000000  16.444181   # H_
 137 1 10   0.000000  15.381784  26.896000  17.014384   # O_1
 138 1 10   0.000000  17.014383  26.896000  15.381782   # O_1
 139 2 8   0.000000  17.502525  26.896000  22.311387   # N_1
 140 2 8   0.000000  17.452429  26.896000  23.453639   # N_1
 141 1 10   0.000000   3.566410   0.000000  24.962178   # O_1
 142 1 6   0.000000   3.152211   0.000000  23.743777   # C_2
 143 1 10   0.000000   1.933811   0.000000  23.329576   # O_1
 144 1 7   0.000000   4.209211   0.000000  22.686778   # C_R
 145 1 7   0.000000   5.535211   0.000000  23.004079   # C_R
 146 1 7   0.000000   3.891912   0.000000  21.360778   # C_R
 147 1 7   0.000000   6.508812   0.000000  22.068180   # C_R
 148 1 5   0.000000   5.780010   0.000000  23.899779   # H_
 149 1 7   0.000000   4.827813   0.000000  20.387179   # C_R
 150 1 5   0.000000   2.996212   0.000000  21.115977   # H_
 151 1 7   0.000000   6.204913   0.000000  20.691080   # C_R
 152 1 7   0.000000   7.243114   0.000000  19.652880   # C_R
 153 1 5   0.000000   7.399112   0.000000  22.337080   # H_
 154 1 7   0.000000   8.620213   0.000000  19.956781   # C_R
 155 1 5   0.000000   4.558914   0.000000  19.496878   # H_
 156 1 7   0.000000   6.939215   0.000000  18.275780   # C_R
 157 1 7   0.000000   9.556114   0.000000  18.983182   # C_R
 158 2 9   0.000000   9.487428   0.000000  21.092169   # N_2
 159 1 7   0.000000   7.912815   0.000000  17.339881   # C_R
 160 1 5   0.000000   6.048915   0.000000  18.006879   # H_
 161 1 7   0.000000   9.238815   0.000000  17.657182   # C_R
 162 1 6   0.000000  10.295816   0.000000  16.600183   # C_2
 163 1 5   0.000000  10.451814   0.000000  19.227983   # H_
 164 1 5   0.000000   7.668016   0.000000  16.444181   # H_
 165 1 10   0.000000  11.514216   0.000000  17.014384   # O_1
 166 1 10   0.000000   9.881617   0.000000  15.381782   # O_1
 167 2 8   0.000000   9.393475   0.000000  22.311387   # N_1
 168 2 8   0.000000   9.443571   0.000000  23.453639   # N_1
 169 1 10   0.000000   1.933822   3.566410   0.000000   # O_1
 170 1 6   0.000000   3.152223   3.152211   0.000000   # C_2
 171 1 10   0.000000   3.566424   1.933811   0.000000   # O_1
 172 1 7   0.000000   4.209222   4.209211   0.000000   # C_R
 173 1 7   0.000000   3.891921   5.535211  26.896000   # C_R
 174 1 7   0.000000   5.535222   3.891912   0.000000   # C_R
 175 1 7   0.000000   4.827820   6.508812  26.896000   # C_R
 176 1 5   0.000000   2.996221   5.780010  26.896000   # H_
 177 1 7   0.000000   6.508821   4.827813   0.000000   # C_R
 178 1 5   0.000000   5.780023   2.996212   0.000000   # H_
 179 1 7   0.000000   6.204920   6.204913   0.000000   # C_R
 180 1 7   0.000000   7.243120   7.243114  26.896000   # C_R
 181 1 5   0.000000   4.558920   7.399112  26.896000   # H_
 182 1 7   0.000000   6.939219   8.620213  26.896000   # C_R
 183 1 5   0.000000   7.399122   4.558914   0.000000   # H_
 184 1 7   0.000000   8.620220   6.939215   0.000000   # C_R
 185 1 7   0.000000   7.912818   9.556114  26.896000   # C_R
 186 2 9   0.000000   5.803831   9.487428  26.896000   # N_2
 187 1 7   0.000000   9.556119   7.912815   0.000000   # C_R
 188 1 5   0.000000   8.889121   6.048915   0.000000   # H_
 189 1 7   0.000000   9.238818   9.238815  26.896000   # C_R
 190 1 6   0.000000  10.295817  10.295816  26.896000   # C_2
 191 1 5   0.000000   7.668017  10.451814  26.896000   # H_
 192 1 5   0.000000  10.451819   7.668016   0.000000   # H_
 193 1 10   0.000000   9.881616  11.514216  26.896000   # O_1
 194 1 10   0.000000  11.514218   9.881617  26.896000   # O_1
 195 2 8   0.000000   4.584613   9.393475  26.896000   # N_1
 196 2 8   0.000000   3.442361   9.443571  26.896000   # N_1
 197 1 10   0.000000   1.933822  23.329590   0.000000   # O_1
 198 1 6   0.000000   3.152223  23.743789   0.000000   # C_2
 199 1 10   0.000000   3.566424  24.962189   0.000000   # O_1
 200 1 7   0.000000   4.209222  22.686789   0.000000   # C_R
 201 1 7   0.000000   3.891921  21.360789   0.000000   # C_R
 202 1 7   0.000000   5.535222  23.004088   0.000000   # C_R
 203 1 7   0.000000   4.827820  20.387188   0.000000   # C_R
 204 1 5   0.000000   2.996221  21.115990   0.000000   # H_
 205 1 7   0.000000   6.508821  22.068187   0.000000   # C_R
 206 1 5   0.000000   5.780023  23.899788   0.000000   # H_
 207 1 7   0.000000   6.204920  20.691087   0.000000   # C_R
 208 1 7   0.000000   7.243120  19.652886   0.000000   # C_R
 209 1 5   0.000000   4.558920  19.496888   0.000000   # H_
 210 1 7   0.000000   6.939219  18.275787   0.000000   # C_R
 211 1 5   0.000000   7.399122  22.337086   0.000000   # H_
 212 1 7   0.000000   8.620220  19.956785   0.000000   # C_R
 213 1 7   0.000000   7.912818  17.339886   0.000000   # C_R
 214 2 9   0.000000   5.803831  17.408572   0.000000   # N_2
 215 1 7   0.000000   9.556119  18.983185   0.000000   # C_R
 216 1 5   0.000000   8.889121  20.847085   0.000000   # H_
 217 1 7   0.000000   9.238818  17.657185   0.000000   # C_R
 218 1 6   0.000000  10.295817  16.600184   0.000000   # C_2
 219 1 5   0.000000   7.668017  16.444186   0.000000   # H_
 220 1 5   0.000000  10.451819  19.227984   0.000000   # H_
 221 1 10   0.000000   9.881616  15.381784   0.000000   # O_1
 222 1 10   0.000000  11.514218  17.014383   0.000000   # O_1
 223 2 8   0.000000   4.584613  17.502525   0.000000   # N_1
 224 2 8   0.000000   3.442361  17.452429   0.000000   # N_1
 225 1 10   0.000000  24.962178  23.329590   0.000000   # O_1
 226 1 6   0.000000  23.743777  23.743789   0.000000   # C_2
 227 1 10   0.000000  23.329576  24.962189   0.000000   # O_1
 228 1 7   0.000000  22.686778  22.686789   0.000000   # C_R
 229 1 7   0.000000  23.004079  21.360789  26.896000   # C_R
 230 1 7   0.000000  21.360778  23.004088   0.000000   # C_R
 231 1 7   0.000000  22.068180  20.387188  26.896000   # C_R
 232 1 5   0.000000  23.899779  21.115990  26.896000   # H_
 233 1 7   0.000000  20.387179  22.068187   0.000000   # C_R
 234 1 5   0.000000  21.115977  23.899788   0.000000   # H_
 235 1 7   0.000000  20.691080  20.691087   0.000000   # C_R
 236 1 7   0.000000  19.652880  19.652886  26.896000   # C_R
 237 1 5   0.000000  22.337080  19.496888  26.896000   # H_
 238 1 7   0.000000  19.956781  18.275787  26.896000   # C_R
 239 1 5   0.000000  19.496878  22.337086   0.000000   # H_
 240 1 7   0.000000  18.275780  19.956785   0.000000   # C_R
 241 1 7   0.000000  18.983182  17.339886  26.896000   # C_R
 242 2 9   0.000000  21.092169  17.408572  26.896000   # N_2
 243 1 7   0.000000  17.339881  18.983185   0.000000   # C_R
 244 1 5   0.000000  18.006879  20.847085   0.000000   # H_
 245 1 7   0.000000  17.657182  17.657185  26.896000   # C_R
 246 1 6   0.000000  16.600183  16.600184  26.896000   # C_2
 247 1 5   0.000000  19.227983  16.444186  26.896000   # H_
 248 1 5   0.000000  16.444181  19.227984   0.000000   # H_
 249 1 10   0.000000  17.014384  15.381784  26.896000   # O_1
 250 1 10   0.000000  15.381782  17.014383   0.000000   # O_1
 251 2 8   0.000000  22.311387  17.502525  26.896000   # N_1
 252 2 8   0.000000  23.453639  17.452429  26.896000   # N_1
 253 1 10   0.000000  24.962178   3.566410   0.000000   # O_1
 254 1 6   0.000000  23.743777   3.152211   0.000000   # C_2
 255 1 10   0.000000  23.329576   1.933811   0.000000   # O_1
 256 1 7   0.000000  22.686778   4.209211   0.000000   # C_R
 257 1 7   0.000000  23.004079   5.535211   0.000000   # C_R
 258 1 7   0.000000  21.360778   3.891912   0.000000   # C_R
 259 1 7   0.000000  22.068180   6.508812   0.000000   # C_R
 260 1 5   0.000000  23.899779   5.780010   0.000000   # H_
 261 1 7   0.000000  20.387179   4.827813   0.000000   # C_R
 262 1 5   0.000000  21.115977   2.996212   0.000000   # H_
 263 1 7   0.000000  20.691080   6.204913   0.000000   # C_R
 264 1 7   0.000000  19.652880   7.243114   0.000000   # C_R
 265 1 5   0.000000  22.337080   7.399112   0.000000   # H_
 266 1 7   0.000000  19.956781   8.620213   0.000000   # C_R
 267 1 5   0.000000  19.496878   4.558914   0.000000   # H_
 268 1 7   0.000000  18.275780   6.939215   0.000000   # C_R
 269 1 7   0.000000  18.983182   9.556114   0.000000   # C_R
 270 2 9   0.000000  21.092169   9.487428   0.000000   # N_2
 271 1 7   0.000000  17.339881   7.912815   0.000000   # C_R
 272 1 5   0.000000  18.006879   6.048915   0.000000   # H_
 273 1 7   0.000000  17.657182   9.238815   0.000000   # C_R
 274 1 6   0.000000  16.600183  10.295816   0.000000   # C_2
 275 1 5   0.000000  19.227983  10.451814   0.000000   # H_
 276 1 5   0.000000  16.444181   7.668016   0.000000   # H_
 277 1 10   0.000000  17.014384  11.514216   0.000000   # O_1
 278 1 10   0.000000  15.381782   9.881617   0.000000   # O_1
 279 2 8   0.000000  22.311387   9.393475   0.000000   # N_1
 280 2 8   0.000000  23.453639   9.443571   0.000000   # N_1
 281 1 10   0.000000   0.000000   1.933822   3.566410   # O_1
 282 1 6   0.000000   0.000000   3.152223   3.152211   # C_2
 283 1 10   0.000000   0.000000   3.566424   1.933811   # O_1
 284 1 7   0.000000   0.000000   4.209222   4.209211   # C_R
 285 1 7   0.000000   0.000000   3.891921   5.535211   # C_R
 286 1 7   0.000000   0.000000   5.535222   3.891912   # C_R
 287 1 7   0.000000   0.000000   4.827820   6.508812   # C_R
 288 1 5   0.000000   0.000000   2.996221   5.780010   # H_
 289 1 7   0.000000   0.000000   6.508821   4.827813   # C_R
 290 1 5   0.000000   0.000000   5.780023   2.996212   # H_
 291 1 7   0.000000   0.000000   6.204920   6.204913   # C_R
 292 1 7   0.000000   0.000000   7.243120   7.243114   # C_R
 293 1 5   0.000000   0.000000   4.558920   7.399112   # H_
 294 1 7   0.000000   0.000000   6.939219   8.620213   # C_R
 295 1 5   0.000000   0.000000   7.399122   4.558914   # H_
 296 1 7   0.000000   0.000000   8.620220   6.939215   # C_R
 297 1 7   0.000000   0.000000   7.912818   9.556114   # C_R
 298 2 9   0.000000   0.000000   5.803831   9.487428   # N_2
 299 1 7   0.000000   0.000000   9.556119   7.912815   # C_R
 300 1 5   0.000000   0.000000   8.889121   6.048915   # H_
 301 1 7   0.000000   0.000000   9.238818   9.238815   # C_R
 302 1 6   0.000000   0.000000  10.295817  10.295816   # C_2
 303 1 5   0.000000   0.000000   7.668017  10.451814   # H_
 304 1 5   0.000000   0.000000  10.451819   7.668016   # H_
 305 1 10   0.000000   0.000000   9.881616  11.514216   # O_1
 306 1 10   0.000000   0.000000  11.514218   9.881617   # O_1
 307 2 8   0.000000   0.000000   4.584613   9.393475   # N_1
 308 2 8   0.000000   0.000000   3.442361   9.443571   # N_1
 309 1 10   0.000000   0.000000   1.933822  23.329590   # O_1
 310 1 6   0.000000   0.000000   3.152223  23.743789   # C_2
 311 1 10   0.000000   0.000000   3.566424  24.962189   # O_1
 312 1 7   0.000000   0.000000   4.209222  22.686789   # C_R
 313 1 7   0.000000   0.000000   3.891921  21.360789   # C_R
 314 1 7   0.000000   0.000000   5.535222  23.004088   # C_R
 315 1 7   0.000000   0.000000   4.827820  20.387188   # C_R
 316 1 5   0.000000   0.000000   2.996221  21.115990   # H_
 317 1 7   0.000000   0.000000   6.508821  22.068187   # C_R
 318 1 5   0.000000   0.000000   5.780023  23.899788   # H_
 319 1 7   0.000000   0.000000   6.204920  20.691087   # C_R
 320 1 7   0.000000   0.000000   7.243120  19.652886   # C_R
 321 1 5   0.000000   0.000000   4.558920  19.496888   # H_
 322 1 7   0.000000   0.000000   6.939219  18.275787   # C_R
 323 1 5   0.000000   0.000000   7.399122  22.337086   # H_
 324 1 7   0.000000   0.000000   8.620220  19.956785   # C_R
 325 1 7   0.000000   0.000000   7.912818  17.339886   # C_R
 326 2 9   0.000000   0.000000   5.803831  17.408572   # N_2
 327 1 7   0.000000   0.000000   9.556119  18.983185   # C_R
 328 1 5   0.000000   0.000000   8.889121  20.847085   # H_
 329 1 7   0.000000   0.000000   9.238818  17.657185   # C_R
 330 1 6   0.000000   0.000000  10.295817  16.600184   # C_2
 331 1 5   0.000000   0.000000   7.668017  16.444186   # H_
 332 1 5   0.000000   0.000000  10.451819  19.227984   # H_
 333 1 10   0.000000   0.000000   9.881616  15.381784   # O_1
 334 1 10   0.000000   0.000000  11.514218  17.014383   # O_1
 335 2 8   0.000000   0.000000   4.584613  17.502525   # N_1
 336 2 8   0.000000   0.000000   3.442361  17.452429   # N_1
 337 1 10   0.000000   0.000000  24.962178  23.329590   # O_1
 338 1 6   0.000000   0.000000  23.743777  23.743789   # C_2
 339 1 10   0.000000   0.000000  23.329576  24.962189   # O_1
 340 1 7   0.000000   0.000000  22.686778  22.686789   # C_R
 341 1 7   0.000000  26.896000  23.004079  21.360789   # C_R
 342 1 7   0.000000   0.000000  21.360778  23.004088   # C_R
 343 1 7   0.000000  26.896000  22.068180  20.387188   # C_R
 344 1 5   0.000000  26.896000  23.899779  21.115990   # H_
 345 1 7   0.000000   0.000000  20.387179  22.068187   # C_R
 346 1 5   0.000000   0.000000  21.115977  23.899788   # H_
 347 1 7   0.000000   0.000000  20.691080  20.691087   # C_R
 348 1 7   0.000000  26.896000  19.652880  19.652886   # C_R
 349 1 5   0.000000  26.896000  22.337080  19.496888   # H_
 350 1 7   0.000000  26.896000  19.956781  18.275787   # C_R
 351 1 5   0.000000   0.000000  19.496878  22.337086   # H_
 352 1 7   0.000000   0.000000  18.275780  19.956785   # C_R
 353 1 7   0.000000  26.896000  18.983182  17.339886   # C_R
 354 2 9   0.000000  26.896000  21.092169  17.408572   # N_2
 355 1 7   0.000000   0.000000  17.339881  18.983185   # C_R
 356 1 5   0.000000   0.000000  18.006879  20.847085   # H_
 357 1 7   0.000000  26.896000  17.657182  17.657185   # C_R
 358 1 6   0.000000  26.896000  16.600183  16.600184   # C_2
 359 1 5   0.000000  26.896000  19.227983  16.444186   # H_
 360 1 5   0.000000   0.000000  16.444181  19.227984   # H_
 361 1 10   0.000000  26.896000  17.014384  15.381784   # O_1
 362 1 10   0.000000   0.000000  15.381782  17.014383   # O_1
 363 2 8   0.000000  26.896000  22.311387  17.502525   # N_1
 364 2 8   0.000000  26.896000  23.453639  17.452429   # N_1
 365 1 10   0.000000   0.000000  24.962178   3.566410   # O_1
 366 1 6   0.000000  26.896000  23.743777   3.152211   # C_2
 367 1 10   0.000000  26.896000  23.329576   1.933811   # O_1
 368 1 7   0.000000  26.896000  22.686778   4.209211   # C_R
 369 1 7   0.000000   0.000000  23.004079   5.535211   # C_R
 370 1 7   0.000000  26.896000  21.360778   3.891912   # C_R
 371 1 7   0.000000   0.000000  22.068180   6.508812   # C_R
 372 1 5   0.000000   0.000000  23.899779   5.780010   # H_
 373 1 7   0.000000  26.896000  20.387179   4.827813   # C_R
 374 1 5   0.000000  26.896000  21.115977   2.996212   # H_
 375 1 7   0.000000  26.896000  20.691080   6.204913   # C_R
 376 1 7   0.000000   0.000000  19.652880   7.243114   # C_R
 377 1 5   0.000000   0.000000  22.337080   7.399112   # H_
 378 1 7   0.000000   0.000000  19.956781   8.620213   # C_R
 379 1 5   0.000000  26.896000  19.496878   4.558914   # H_
 380 1 7   0.000000  26.896000  18.275780   6.939215   # C_R
 381 1 7   0.000000   0.000000  18.983182   9.556114   # C_R
 382 2 9   0.000000   0.000000  21.092169   9.487428   # N_2
 383 1 7   0.000000  26.896000  17.339881   7.912815   # C_R
 384 1 5   0.000000  26.896000  18.006879   6.048915   # H_
 385 1 7   0.000000   0.000000  17.657182   9.238815   # C_R
 386 1 6   0.000000   0.000000  16.600183  10.295816   # C_2
 387 1 5   0.000000   0.000000  19.227983  10.451814   # H_
 388 1 5   0.000000  26.896000  16.444181   7.668016   # H_
 389 1 10   0.000000   0.000000  17.014384  11.514216   # O_1
 390 1 10   0.000000   0.000000  15.381782   9.881617   # O_1
 391 2 8   0.000000   0.000000  22.311387   9.393475   # N_1
 392 2 8   0.000000   0.000000  23.453639   9.443571   # N_1
 393 1 10   0.000000   3.566410  13.448000  15.381822   # O_1
 394 1 6   0.000000   3.152211  13.448000  16.600223   # C_2
 395 1 10   0.000000   1.933811  13.448000  17.014424   # O_1
 396 1 7   0.000000   4.209211  13.448000  17.657222   # C_R
 397 1 7   0.000000   5.535211  13.448000  17.339921   # C_R
 398 1 7   0.000000   3.891912  13.448000  18.983222   # C_R
 399 1 7   0.000000   6.508812  13.448000  18.275820   # C_R
 400 1 5   0.000000   5.780010  13.448000  16.444221   # H_
 401 1 7   0.000000   4.827813  13.448000  19.956821   # C_R
 402 1 5   0.000000   2.996212  13.448000  19.228023   # H_
 403 1 7   0.000000   6.204913  13.448000  19.652920   # C_R
 404 1 7   0.000000   7.243114  13.448000  20.691120   # C_R
 405 1 5   0.000000   7.399112  13.448000  18.006920   # H_
 406 1 7   0.000000   8.620213  13.448000  20.387219   # C_R
 407 1 5   0.000000   4.558914  13.448000  20.847122   # H_
 408 1 7   0.000000   6.939215  13.448000  22.068220   # C_R
 409 1 7   0.000000   9.556114  13.448000  21.360818   # C_R
 410 2 9   0.000000   9.487428  13.448000  19.251831   # N_2
 411 1 7   0.000000   7.912815  13.448000  23.004119   # C_R
 412 1 5   0.000000   6.048915  13.448000  22.337121   # H_
 413 1 7   0.000000   9.238815  13.448000  22.686818   # C_R
 414 1 6   0.000000  10.295816  13.448000  23.743817   # C_2
 415 1 5   0.000000  10.451814  13.448000  21.116017   # H_
 416 1 5   0.000000   7.668016  13.448000  23.899819   # H_
 417 1 10   0.000000  11.514216  13.448000  23.329616   # O_1
 418 1 10   0.000000   9.881617  13.448000  24.962218   # O_1
 419 2 8   0.000000   9.393475  13.448000  18.032613   # N_1
 420 2 8   0.000000   9.443571  13.448000  16.890361   # N_1
 421 1 10   0.000000  23.329590  13.448000  15.381822   # O_1
 422 1 6   0.000000  23.743789  13.448000  16.600223   # C_2
 423 1 10   0.000000  24.962189  13.448000  17.014424   # O_1
 424 1 7   0.000000  22.686789  13.448000  17.657222   # C_R
 425 1 7   0.000000  21.360789  13.448000  17.339921   # C_R
 426 1 7   0.000000  23.004088  13.448000  18.983222   # C_R
 427 1 7   0.000000  20.387188  13.448000  18.275820   # C_R
 428 1 5   0.000000  21.115990  13.448000  16.444221   # H_
 429 1 7   0.000000  22.068187  13.448000  19.956821   # C_R
 430 1 5   0.000000  23.899788  13.448000  19.228023   # H_
 431 1 7   0.000000  20.691087  13.448000  19.652920   # C_R
 432 1 7   0.000000  19.652886  13.448000  20.691120   # C_R
 433 1 5   0.000000  19.496888  13.448000  18.006920   # H_
 434 1 7   0.000000  18.275787  13.448000  20.387219   # C_R
 435 1 5   0.000000  22.337086  13.448000  20.847122   # H_
 436 1 7   0.000000  19.956785  13.448000  22.068220   # C_R
 437 1 7   0.000000  17.339886  13.448000  21.360818   # C_R
 438 2 9   0.000000  17.408572  13.448000  19.251831   # N_2
 439 1 7   0.000000  18.983185  13.448000  23.004119   # C_R
 440 1 5   0.000000  20.847085  13.448000  22.337121   # H_
 441 1 7   0.000000  17.657185  13.448000  22.686818   # C_R
 442 1 6   0.000000  16.600184  13.448000  23.743817   # C_2
 443 1 5   0.000000  16.444186  13.448000  21.116017   # H_
 444 1 5   0.000000  19.227984  13.448000  23.899819   # H_
 445 1 10   0.000000  15.381784  13.448000  23.329616   # O_1
 446 1 10   0.000000  17.014383  13.448000  24.962218   # O_1
 447 2 8   0.000000  17.502525  13.448000  18.032613   # N_1
 448 2 8   0.000000  17.452429  13.448000  16.890361   # N_1
 449 1 10   0.000000  23.329590  13.448000  11.514178   # O_1
 450 1 6   0.000000  23.743789  13.448000  10.295777   # C_2
 451 1 10   0.000000  24.962189  13.448000   9.881576   # O_1
 452 1 7   0.000000  22.686789  13.448000   9.238778   # C_R
 453 1 7   0.000000  21.360789  13.448000   9.556079   # C_R
 454 1 7   0.000000  23.004088  13.448000   7.912778   # C_R
 455 1 7   0.000000  20.387188  13.448000   8.620180   # C_R
 456 1 5   0.000000  21.115990  13.448000  10.451779   # H_
 457 1 7   0.000000  22.068187  13.448000   6.939179   # C_R
 458 1 5   0.000000  23.899788  13.448000   7.667977   # H_
 459 1 7   0.000000  20.691087  13.448000   7.243080   # C_R
 460 1 7   0.000000  19.652886  13.448000   6.204880   # C_R
 461 1 5   0.000000  19.496888  13.448000   8.889080   # H_
 462 1 7   0.000000  18.275787  13.448000   6.508781   # C_R
 463 1 5   0.000000  22.337086  13.448000   6.048878   # H_
 464 1 7   0.000000  19.956785  13.448000   4.827780   # C_R
 465 1 7   0.000000  17.339886  13.448000   5.535182   # C_R
 466 2 9   0.000000  17.408572  13.448000   7.644169   # N_2
 467 1 7   0.000000  18.983185  13.448000   3.891881   # C_R
 468 1 5   0.000000  20.847085  13.448000   4.558879   # H_
 469 1 7   0.000000  17.657185  13.448000   4.209182   # C_R
 470 1 6   0.000000  16.600184  13.448000   3.152183   # C_2
 471 1 5   0.000000  16.444186  13.448000   5.779983   # H_
 472 1 5   0.000000  19.227984  13.448000   2.996181   # H_
 473 1 10   0.000000  15.381784  13.448000   3.566384   # O_1