 (written by mofun)

1016 atoms
360 bonds
696 angles
984 dihedrals
0 impropers

10 atom types
5 bond types
9 angle types
13 dihedral types
   0.000000  26.896000 xlo xhi
   0.000000  26.896000 ylo yhi
   0.000000  26.896000 zlo zhi

Masses

 1 91.2240   # Zr3+4
 2 15.9994   # O_3
 3 12.0107   # C_3
 4 1.0079   # H_
 5 1.0079   # H_
 6 12.0107   # C_2
 7 12.0107   # C_3
 8 12.0107   # C_R
 9 14.0067   # N_3
 10 15.9994   # O_1

Pair Coeffs

 1   0.069000   2.783168 # Zr3+4
 2   0.060000   3.118146 # O_3
 3   0.105000   3.430851 # C_3
 4   0.044000   2.571134 # H_
 5 0.044000 2.571134   # H_
 6 0.105000 3.430851   # C_2
 7 0.105000 3.430851   # C_3
 8 0.105000 3.430851   # C_R
 9 0.069000 3.260689   # N_3
 10 0.060000 3.118146   # O_1

Bond Coeffs

 1 560.312976 1.423192   # C_R N_3
 2 527.945261 1.044419   # H_ N_3
 3 528.634538 1.451071   # C_3 N_3
 4 349.795899 1.514000   # C_3 C_3
 5 331.069389 1.109401   # C_3 H_

Angle Coeffs

 1 cosine/periodic  282.369526  -1  3   # C_R C_R N_3
 2 fourier  150.574599  0.317506  0.313225  0.272502   # C_R N_3 H_
 3 fourier  268.482172  0.317506  0.313225  0.272502   # C_3 N_3 C_R
 4 fourier  144.695053  0.317506  0.313225  0.272502   # C_3 N_3 H_
 5 fourier  303.297032  0.343737  0.374972  0.281246   # C_3 C_3 N_3
 6 fourier  169.780468  0.343737  0.374972  0.281246   # H_ C_3 N_3
 7 fourier  117.318683  0.343737  0.374972  0.281246   # C_3 C_3 H_
 8 fourier  75.498766  0.343737  0.374972  0.281246   # H_ C_3 H_
 9 fourier  214.211821  0.343737  0.374972  0.281246   # C_3 C_3 C_3

Dihedral Coeffs

 1 harmonic 3.368555 -1 2   # C_R C_R C_R N_3 M=4
 2 harmonic 3.368555 -1 2   # H_ C_R C_R N_3 M=4
 3 harmonic 0.125000 -1 6   # C_R C_R N_3 H_ M=4
 4 harmonic 0.125000 -1 6   # C_3 N_3 C_R C_R M=4
 5 harmonic 0.081375 1 3   # C_3 C_3 N_3 C_R M=6
 6 harmonic 0.081375 1 3   # C_R N_3 C_3 H_ M=6
 7 harmonic 0.081375 1 3   # C_3 C_3 N_3 H_ M=6
 8 harmonic 0.081375 1 3   # H_ C_3 N_3 H_ M=6
 9 harmonic 0.117722 1 3   # C_3 C_3 C_3 N_3 M=9
 10 harmonic 0.117722 1 3   # H_ C_3 C_3 N_3 M=9
 11 harmonic 0.117722 1 3   # C_3 C_3 C_3 H_ M=9
 12 harmonic 0.117722 1 3   # H_ C_3 C_3 H_ M=9
 13 harmonic 0.117722 1 3   # C_3 C_3 C_3 C_3 M=9

Atoms

 1 1 1   0.000000   2.475508   0.000000   0.000000   # Zr3+4
 2 1 1   0.000000  24.420492   0.000000   0.000000   # Zr3+4
 3 1 1   0.000000   0.000000   2.475508   0.000000   # Zr3+4
 4 1 1   0.000000   0.000000  24.420492   0.000000   # Zr3+4
 5 1 1   0.000000   0.000000   0.000000   2.475508   # Zr3+4
 6 1 1   0.000000   0.000000   0.000000  24.420492   # Zr3+4
 7 1 1   0.000000   2.475508  13.448000  13.448000   # Zr3+4
 8 1 1   0.000000  24.420492  13.448000  13.448000   # Zr3+4
 9 1 1   0.000000   0.000000  15.923508  13.448000   # Zr3+4
 10 1 1   0.000000   0.000000  10.972492  13.448000   # Zr3+4
 11 1 1   0.000000   0.000000  13.448000  15.923508   # Zr3+4
 12 1 1   0.000000   0.000000  13.448000  10.972492   # Zr3+4
 13 1 1   0.000000  15.923508   0.000000  13.448000   # Zr3+4
 14 1 1   0.000000  10.972492   0.000000  13.448000   # Zr3+4
 15 1 1   0.000000  13.448000   2.475508  13.448000   # Zr3+4
 16 1 1   0.000000  13.448000  24.420492  13.448000   # Zr3+4
 17 1 1   0.000000  13.448000   0.000000  15.923508   # Zr3+4
 18 1 1   0.000000  13.448000   0.000000  10.972492   # Zr3+4
 19 1 1   0.000000  15.923508  13.448000   0.000000   # Zr3+4
 20 1 1   0.000000  10.972492  13.448000   0.000000   # Zr3+4
 21 1 1   0.000000  13.448000  15.923508   0.000000   # Zr3+4
 22 1 1   0.000000  13.448000  10.972492   0.000000   # Zr3+4
 23 1 1   0.000000  13.448000  13.448000   2.475508   # Zr3+4
 24 1 1   0.000000  13.448000  13.448000  24.420492   # Zr3+4
 25 1 2   0.000000   1.221078   1.221078   1.221078   # O_3
 26 1 2   0.000000  25.674922  25.674922   1.221078   # O_3
 27 1 2   0.000000  25.674922   1.221078  25.674922   # O_3
 28 1 2   0.000000   1.221078  25.674922  25.674922   # O_3
 29 1 2   0.000000   1.221078   1.221078  25.674922   # O_3
 30 1 2   0.000000  25.674922  25.674922  25.674922   # O_3
 31 1 2   0.000000   1.221078  25.674922   1.221078   # O_3
 32 1 2   0.000000  25.674922   1.221078   1.221078   # O_3
 33 1 2   0.000000   1.221078  14.669078  14.669078   # O_3
 34 1 2   0.000000  25.674922  12.226922  14.669078   # O_3
 35 1 2   0.000000  25.674922  14.669078  12.226922   # O_3
 36 1 2   0.000000   1.221078  12.226922  12.226922   # O_3
 37 1 2   0.000000   1.221078  14.669078  12.226922   # O_3
 38 1 2   0.000000  25.674922  12.226922  12.226922   # O_3
 39 1 2   0.000000   1.221078  12.226922  14.669078   # O_3
 40 1 2   0.000000  25.674922  14.669078  14.669078   # O_3
 41 1 2   0.000000  14.669078   1.221078  14.669078   # O_3
 42 1 2   0.000000  12.226922  25.674922  14.669078   # O_3
 43 1 2   0.000000  12.226922   1.221078  12.226922   # O_3
 44 1 2   0.000000  14.669078  25.674922  12.226922   # O_3
 45 1 2   0.000000  14.669078   1.221078  12.226922   # O_3
 46 1 2   0.000000  12.226922  25.674922  12.226922   # O_3
 47 1 2   0.000000  14.669078  25.674922  14.669078   # O_3
 48 1 2   0.000000  12.226922   1.221078  14.669078   # O_3
 49 1 2   0.000000  14.669078  14.669078   1.221078   # O_3
 50 1 2   0.000000  12.226922  12.226922   1.221078   # O_3
 51 1 2   0.000000  12.226922  14.669078  25.674922   # O_3
 52 1 2   0.000000  14.669078  12.226922  25.674922   # O_3
 53 1 2   0.000000  14.669078  14.669078  25.674922   # O_3
 54 1 2   0.000000  12.226922  12.226922  25.674922   # O_3
 55 1 2   0.000000  14.669078  12.226922   1.221078   # O_3
 56 1 2   0.000000  12.226922  14.669078   1.221078   # O_3
 57 1 10   0.000000   3.566410   0.000000   1.933822   # O_1
 58 1 6   0.000000   3.152211   0.000000   3.152223   # C_2
 59 1 10   0.000000   1.933811  26.896000   3.566424   # O_1
 60 1 8   0.000000   4.209211   0.000000   4.209222   # C_R
 61 1 8   0.000000   5.535211   0.000000   3.891921   # C_R
 62 1 8   0.000000   3.891912   0.000000   5.535222   # C_R
 63 1 8   0.000000   6.508812   0.000000   4.827820   # C_R
 64 1 5   0.000000   5.780010  26.896000   2.996221   # H_
 65 1 8   0.000000   4.827813  26.896000   6.508821   # C_R
 66 1 5   0.000000   2.996212  26.896000   5.780023   # H_
 67 1 8   0.000000   6.204913   0.000000   6.204920   # C_R
 68 1 8   0.000000   7.243114  26.896000   7.243120   # C_R
 69 1 5   0.000000   7.399112   0.000000   4.558920   # H_
 70 1 8   0.000000   8.620213   0.000000   6.939219   # C_R
 71 1 5   0.000000   4.558914   0.000000   7.399122   # H_
 72 1 8   0.000000   6.939215   0.000000   8.620220   # C_R
 73 1 8   0.000000   9.556114   0.000000   7.912818   # C_R
 74 2 9   0.000000   9.123026   0.251009   5.624301   # N_3
 75 1 8   0.000000   7.912815   0.000000   9.556119   # C_R
 76 1 5   0.000000   6.048915   0.000000   8.889121   # H_
 77 1 8   0.000000   9.238815  26.896000   9.238818   # C_R
 78 1 6   0.000000  10.295816  26.896000  10.295817   # C_2
 79 1 5   0.000000  10.451814   0.000000   7.668017   # H_
 80 1 5   0.000000   7.668016   0.000000  10.451819   # H_
 81 1 10   0.000000  11.514216   0.000000   9.881616   # O_1
 82 1 10   0.000000   9.881617   0.000000  11.514218   # O_1
 83 2 5   0.000000   9.036499   1.257862   5.476365   # H_
 84 2 7   0.000000  10.451987  26.671397   5.239184   # C_3
 85 2 7   0.000000  10.583150  26.748154   3.716548   # C_3
 86 2 7   0.000000  11.968071  26.294405   3.256429   # C_3
 87 2 5   0.000000  12.738045   0.027844   3.717745   # H_
 88 2 7   0.000000  12.106045  26.367545   1.744385   # C_3
 89 2 5   0.000000  12.151230  25.264805   3.585243   # H_
 90 2 5   0.000000  10.596831  25.632659   5.560425   # H_
 91 2 5   0.000000  11.230060   0.400596   5.693014   # H_
 92 2 5   0.000000  10.401163   0.881238   3.381406   # H_
 93 2 5   0.000000   9.811887  26.123678   3.248316   # H_
 94 2 5   0.000000  11.959634   0.495557   1.386140   # H_
 95 2 5   0.000000  11.371801  25.722222   1.251894   # H_
 96 2 5   0.000000  13.104960  26.040603   1.438951   # H_
 97 1 10   0.000000  23.329590   0.000000   1.933822   # O_1
 98 1 6   0.000000  23.743789   0.000000   3.152223   # C_2
 99 1 10   0.000000  24.962189   0.000000   3.566424   # O_1
 100 1 8   0.000000  22.686789   0.000000   4.209222   # C_R
 101 1 8   0.000000  21.360789  26.896000   3.891921   # C_R
 102 1 8   0.000000  23.004088   0.000000   5.535222   # C_R
 103 1 8   0.000000  20.387188  26.896000   4.827820   # C_R
 104 1 5   0.000000  21.115990  26.896000   2.996221   # H_
 105 1 8   0.000000  22.068187   0.000000   6.508821   # C_R
 106 1 5   0.000000  23.899788   0.000000   5.780023   # H_
 107 1 8   0.000000  20.691087   0.000000   6.204920   # C_R
 108 1 8   0.000000  19.652886  26.896000   7.243120   # C_R
 109 1 5   0.000000  19.496888  26.896000   4.558920   # H_
 110 1 8   0.000000  18.275787  26.896000   6.939219   # C_R
 111 1 5   0.000000  22.337086   0.000000   7.399122   # H_
 112 1 8   0.000000  19.956785   0.000000   8.620220   # C_R
 113 1 8   0.000000  17.339886  26.896000   7.912818   # C_R
 114 2 9   0.000000  17.772974  26.644991   5.624301   # N_3
 115 1 8   0.000000  18.983185   0.000000   9.556119   # C_R
 116 1 5   0.000000  20.847085   0.000000   8.889121   # H_
 117 1 8   0.000000  17.657185  26.896000   9.238818   # C_R
 118 1 6   0.000000  16.600184  26.896000  10.295817   # C_2
 119 1 5   0.000000  16.444186  26.896000   7.668017   # H_
 120 1 5   0.000000  19.227984   0.000000  10.451819   # H_
 121 1 10   0.000000  15.381784  26.896000   9.881616   # O_1
 122 1 10   0.000000  17.014383  26.896000  11.514218   # O_1
 123 2 5   0.000000  17.859501  25.638138   5.476365   # H_
 124 2 7   0.000000  16.444013   0.224603   5.239184   # C_3
 125 2 7   0.000000  16.312850   0.147846   3.716548   # C_3
 126 2 7   0.000000  14.927929   0.601595   3.256429   # C_3
 127 2 5   0.000000  14.157955  26.868156   3.717745   # H_
 128 2 7   0.000000  14.789955   0.528455   1.744385   # C_3
 129 2 5   0.000000  14.744770   1.631195   3.585243   # H_
 130 2 5   0.000000  16.299169   1.263341   5.560425   # H_
 131 2 5   0.000000  15.665940  26.495404   5.693014   # H_
 132 2 5   0.000000  16.494837  26.014762   3.381406   # H_
 133 2 5   0.000000  17.084113   0.772322   3.248316   # H_
 134 2 5   0.000000  14.936366  26.400443   1.386140   # H_
 135 2 5   0.000000  15.524199   1.173778   1.251894   # H_
 136 2 5   0.000000  13.791040   0.855397   1.438951   # H_
 137 1 10   0.000000  23.329590   0.000000  24.962178   # O_1
 138 1 6   0.000000  23.743789   0.000000  23.743777   # C_2
 139 1 10   0.000000  24.962189   0.000000  23.329576   # O_1
 140 1 8   0.000000  22.686789   0.000000  22.686778   # C_R
 141 1 8   0.000000  21.360789  26.896000  23.004079   # C_R
 142 1 8   0.000000  23.004088   0.000000  21.360778   # C_R
 143 1 8   0.000000  20.387188  26.896000  22.068180   # C_R
 144 1 5   0.000000  21.115990  26.896000  23.899779   # H_
 145 1 8   0.000000  22.068187   0.000000  20.387179   # C_R
 146 1 5   0.000000  23.899788   0.000000  21.115977   # H_
 147 1 8   0.000000  20.691087   0.000000  20.691080   # C_R
 148 1 8   0.000000  19.652886  26.896000  19.652880   # C_R
 149 1 5   0.000000  19.496888  26.896000  22.337080   # H_
 150 1 8   0.000000  18.275787  26.896000  19.956781   # C_R
 151 1 5   0.000000  22.337086   0.000000  19.496878   # H_
 152 1 8   0.000000  19.956785   0.000000  18.275780   # C_R
 153 1 8   0.000000  17.339886  26.896000  18.983182   # C_R
 154 2 9   0.000000  17.772974   0.251009  21.271699   # N_3
 155 1 8   0.000000  18.983185   0.000000  17.339881   # C_R
 156 1 5   0.000000  20.847085   0.000000  18.006879   # H_
 157 1 8   0.000000  17.657185  26.896000  17.657182   # C_R
 158 1 6   0.000000  16.600184  26.896000  16.600183   # C_2
 159 1 5   0.000000  16.444186  26.896000  19.227983   # H_
 160 1 5   0.000000  19.227984   0.000000  16.444181   # H_
 161 1 10   0.000000  15.381784  26.896000  17.014384   # O_1
 162 1 10   0.000000  17.014383  26.896000  15.381782   # O_1
 163 2 5   0.000000  17.859501   1.257862  21.419635   # H_
 164 2 7   0.000000  16.444013  26.671397  21.656816   # C_3
 165 2 7   0.000000  16.312850  26.748154  23.179452   # C_3
 166 2 7   0.000000  14.927929  26.294405  23.639571   # C_3
 167 2 5   0.000000  14.157955   0.027844  23.178255   # H_
 168 2 7   0.000000  14.789955  26.367545  25.151615   # C_3
 169 2 5   0.000000  14.744770  25.264805  23.310757   # H_
 170 2 5   0.000000  16.299169  25.632659  21.335575   # H_
 171 2 5   0.000000  15.665940   0.400596  21.202986   # H_
 172 2 5   0.000000  16.494837   0.881238  23.514594   # H_
 173 2 5   0.000000  17.084113  26.123678  23.647684   # H_
 174 2 5   0.000000  14.936366   0.495557  25.509860   # H_
 175 2 5   0.000000  15.524199  25.722222  25.644106   # H_
 176 2 5   0.000000  13.791040  26.040603  25.457049   # H_
 177 1 10   0.000000   3.566410   0.000000  24.962178   # O_1
 178 1 6   0.000000   3.152211   0.000000  23.743777   # C_2
 179 1 10   0.000000   1.933811   0.000000  23.329576   # O_1
 180 1 8   0.000000   4.209211   0.000000  22.686778   # C_R
 181 1 8   0.000000   5.535211   0.000000  23.004079   # C_R
 182 1 8   0.000000   3.891912   0.000000  21.360778   # C_R
 183 1 8   0.000000   6.508812   0.000000  22.068180   # C_R
 184 1 5   0.000000   5.780010   0.000000  23.899779   # H_
 185 1 8   0.000000   4.827813   0.000000  20.387179   # C_R
 186 1 5   0.000000   2.996212   0.000000  21.115977   # H_
 187 1 8   0.000000   6.204913   0.000000  20.691080   # C_R
 188 1 8   0.000000   7.243114   0.000000  19.652880   # C_R
 189 1 5   0.000000   7.399112   0.000000  22.337080   # H_
 190 1 8   0.000000   8.620213   0.000000  19.956781   # C_R
 191 1 5   0.000000   4.558914   0.000000  19.496878   # H_
 192 1 8   0.000000   6.939215   0.000000  18.275780   # C_R
 193 1 8   0.000000   9.556114   0.000000  18.983182   # C_R
 194 2 9   0.000000   9.123026  26.644991  21.271699   # N_3
 195 1 8   0.000000   7.912815   0.000000  17.339881   # C_R
 196 1 5   0.000000   6.048915   0.000000  18.006879   # H_
 197 1 8   0.000000   9.238815   0.000000  17.657182   # C_R
 198 1 6   0.000000  10.295816   0.000000  16.600183   # C_2
 199 1 5   0.000000  10.451814   0.000000  19.227983   # H_
 200 1 5   0.000000   7.668016   0.000000  16.444181   # H_
 201 1 10   0.000000  11.514216   0.000000  17.014384   # O_1
 202 1 10   0.000000   9.881617   0.000000  15.381782   # O_1
 203 2 5   0.000000   9.036499  25.638138  21.419635   # H_
 204 2 7   0.000000  10.451987   0.224603  21.656816   # C_3
 205 2 7   0.000000  10.583150   0.147846  23.179452   # C_3
 206 2 7   0.000000  11.968071   0.601595  23.639571   # C_3
 207 2 5   0.000000  12.738045  26.868156  23.178255   # H_
 208 2 7   0.000000  12.106045   0.528455  25.151615   # C_3
 209 2 5   0.000000  12.151230   1.631195  23.310757   # H_
 210 2 5   0.000000  10.596831   1.263341  21.335575   # H_
 211 2 5   0.000000  11.230060  26.495404  21.202986   # H_
 212 2 5   0.000000  10.401163  26.014762  23.514594   # H_
 213 2 5   0.000000   9.811887   0.772322  23.647684   # H_
 214 2 5   0.000000  11.959634  26.400443  25.509860   # H_
 215 2 5   0.000000  11.371801   1.173778  25.644106   # H_
 216 2 5   0.000000  13.104960   0.855397  25.457049   # H_
 217 1 10   0.000000   1.933822   3.566410   0.000000   # O_1
 218 1 6   0.000000   3.152223   3.152211   0.000000   # C_2
 219 1 10   0.000000   3.566424   1.933811   0.000000   # O_1
 220 1 8   0.000000   4.209222   4.209211   0.000000   # C_R
 221 1 8   0.000000   3.891921   5.535211  26.896000   # C_R
 222 1 8   0.000000   5.535222   3.891912   0.000000   # C_R
 223 1 8   0.000000   4.827820   6.508812  26.896000   # C_R
 224 1 5   0.000000   2.996221   5.780010  26.896000   # H_
 225 1 8   0.000000   6.508821   4.827813   0.000000   # C_R
 226 1 5   0.000000   5.780023   2.996212   0.000000   # H_
 227 1 8   0.000000   6.204920   6.204913   0.000000   # C_R
 228 1 8   0.000000   7.243120   7.243114  26.896000   # C_R
 229 1 5   0.000000   4.558920   7.399112  26.896000   # H_
 230 1 8   0.000000   6.939219   8.620213  26.896000   # C_R
 231 1 5   0.000000   7.399122   4.558914   0.000000   # H_
 232 1 8   0.000000   8.620220   6.939215   0.000000   # C_R
 233 1 8   0.000000   7.912818   9.556114  26.896000   # C_R
 234 2 9   0.000000   5.624301   9.123026   0.251009   # N_3
 235 1 8   0.000000   9.556119   7.912815   0.000000   # C_R
 236 1 5   0.000000   8.889121   6.048915   0.000000   # H_
 237 1 8   0.000000   9.238818   9.238815  26.896000   # C_R
 238 1 6   0.000000  10.295817  10.295816  26.896000   # C_2
 239 1 5   0.000000   7.668017  10.451814  26.896000   # H_
 240 1 5   0.000000  10.451819   7.668016   0.000000   # H_
 241 1 10   0.000000   9.881616  11.514216  26.896000   # O_1
 242 1 10   0.000000  11.514218   9.881617  26.896000   # O_1
 243 2 5   0.000000   5.476365   9.036499   1.257862   # H_
 244 2 7   0.000000   5.239184  10.451987  26.671397   # C_3
 245 2 7   0.000000   3.716548  10.583150  26.748154   # C_3
 246 2 7   0.000000   3.256429  11.968071  26.294405   # C_3
 247 2 5   0.000000   3.717745  12.738045   0.027844   # H_
 248 2 7   0.000000   1.744385  12.106045  26.367545   # C_3
 249 2 5   0.000000   3.585243  12.151230  25.264805   # H_
 250 2 5   0.000000   5.560425  10.596831  25.632659   # H_
 251 2 5   0.000000   5.693014  11.230060   0.400596   # H_
 252 2 5   0.000000   3.381406  10.401163   0.881238   # H_
 253 2 5   0.000000   3.248316   9.811887  26.123678   # H_
 254 2 5   0.000000   1.386140  11.959634   0.495557   # H_
 255 2 5   0.000000   1.251894  11.371801  25.722222   # H_
 256 2 5   0.000000   1.438951  13.104960  26.040603   # H_
 257 1 10   0.000000   1.933822  23.329590   0.000000   # O_1
 258 1 6   0.000000   3.152223  23.743789   0.000000   # C_2
 259 1 10   0.000000   3.566424  24.962189   0.000000   # O_1
 260 1 8   0.000000   4.209222  22.686789   0.000000   # C_R
 261 1 8   0.000000   3.891921  21.360789   0.000000   # C_R
 262 1 8   0.000000   5.535222  23.004088   0.000000   # C_R
 263 1 8   0.000000   4.827820  20.387188   0.000000   # C_R
 264 1 5   0.000000   2.996221  21.115990   0.000000   # H_
 265 1 8   0.000000   6.508821  22.068187   0.000000   # C_R
 266 1 5   0.000000   5.780023  23.899788   0.000000   # H_
 267 1 8   0.000000   6.204920  20.691087   0.000000   # C_R
 268 1 8   0.000000   7.243120  19.652886   0.000000   # C_R
 269 1 5   0.000000   4.558920  19.496888   0.000000   # H_
 270 1 8   0.000000   6.939219  18.275787   0.000000   # C_R
 271 1 5   0.000000   7.399122  22.337086   0.000000   # H_
 272 1 8   0.000000   8.620220  19.956785   0.000000   # C_R
 273 1 8   0.000000   7.912818  17.339886   0.000000   # C_R
 274 2 9   0.000000   5.624301  17.772974  26.644991   # N_3
 275 1 8   0.000000   9.556119  18.983185   0.000000   # C_R
 276 1 5   0.000000   8.889121  20.847085   0.000000   # H_
 277 1 8   0.000000   9.238818  17.657185   0.000000   # C_R
 278 1 6   0.000000  10.295817  16.600184   0.000000   # C_2
 279 1 5   0.000000   7.668017  16.444186   0.000000   # H_
 280 1 5   0.000000  10.451819  19.227984   0.000000   # H_
 281 1 10   0.000000   9.881616  15.381784   0.000000   # O_1
 282 1 10   0.000000  11.514218  17.014383   0.000000   # O_1
 283 2 5   0.000000   5.476365  17.859501  25.638138   # H_
 284 2 7   0.000000   5.239184  16.444013   0.224603   # C_3
 285 2 7   0.000000   3.716548  16.312850   0.147846   # C_3
 286 2 7   0.000000   3.256429  14.927929   0.601595   # C_3
 287 2 5   0.000000   3.717745  14.157955  26.868156   # H_
 288 2 7   0.000000   1.744385  14.789955   0.528455   # C_3
 289 2 5   0.000000   3.585243  14.744770   1.631195   # H_
 290 2 5   0.000000   5.560425  16.299169   1.263341   # H_
 291 2 5   0.000000   5.693014  15.665940  26.495404   # H_
 292 2 5   0.000000   3.381406  16.494837  26.014762   # H_
 293 2 5   0.000000   3.248316  17.084113   0.772322   # H_
 294 2 5   0.000000   1.386140  14.936366  26.400443   # H_
 295 2 5   0.000000   1.251894  15.524199   1.173778   # H_
 296 2 5   0.000000   1.438951  13.791040   0.855397   # H_
 297 1 10   0.000000  24.962178  23.329590   0.000000   # O_1
 298 1 6   0.000000  23.743777  23.743789   0.000000   # C_2
 299 1 10   0.000000  23.329576  24.962189   0.000000   # O_1
 300 1 8   0.000000  22.686778  22.686789   0.000000   # C_R
 301 1 8   0.000000  23.004079  21.360789  26.896000   # C_R
 302 1 8   0.000000  21.360778  23.004088   0.000000   # C_R
 303 1 8   0.000000  22.068180  20.387188  26.896000   # C_R
 304 1 5   0.000000  23.899779  21.115990  26.896000   # H_
 305 1 8   0.000000  20.387179  22.068187   0.000000   # C_R
 306 1 5   0.000000  21.115977  23.899788   0.000000   # H_
 307 1 8   0.000000  20.691080  20.691087   0.000000   # C_R
 308 1 8   0.000000  19.652880  19.652886  26.896000   # C_R
 309 1 5   0.000000  22.337080  19.496888  26.896000   # H_
 310 1 8   0.000000  19.956781  18.275787  26.896000   # C_R
 311 1 5   0.000000  19.496878  22.337086   0.000000   # H_
 312 1 8   0.000000  18.275780  19.956785   0.000000   # C_R
 313 1 8   0.000000  18.983182  17.339886  26.896000   # C_R
 314 2 9   0.000000  21.271699  17.772974   0.251009   # N_3
 315 1 8   0.000000  17.339881  18.983185   0.000000   # C_R
 316 1 5   0.000000  18.006879  20.847085   0.000000   # H_
 317 1 8   0.000000  17.657182  17.657185  26.896000   # C_R
 318 1 6   0.000000  16.600183  16.600184  26.896000   # C_2
 319 1 5   0.000000  19.227983  16.444186  26.896000   # H_
 320 1 5   0.000000  16.444181  19.227984   0.000000   # H_
 321 1 10   0.000000  17.014384  15.381784  26.896000   # O_1
 322 1 10   0.000000  15.381782  17.014383   0.000000   # O_1
 323 2 5   0.000000  21.419635  17.859501   1.257862   # H_
 324 2 7   0.000000  21.656816  16.444013  26.671397   # C_3
 325 2 7   0.000000  23.179452  16.312850  26.748154   # C_3
 326 2 7   0.000000  23.639571  14.927929  26.294405   # C_3
 327 2 5   0.000000  23.178255  14.157955   0.027844   # H_
 328 2 7   0.000000  25.151615  14.789955  26.367545   # C_3
 329 2 5   0.000000  23.310757  14.744770  25.264805   # H_
 330 2 5   0.000000  21.335575  16.299169  25.632659   # H_
 331 2 5   0.000000  21.202986  15.665940   0.400596   # H_
 332 2 5   0.000000  23.514594  16.494837   0.881238   # H_
 333 2 5   0.000000  23.647684  17.084113  26.123678   # H_
 334 2 5   0.000000  25.509860  14.936366   0.495557   # H_
 335 2 5   0.000000  25.644106  15.524199  25.722222   # H_
 336 2 5   0.000000  25.457049  13.791040  26.040603   # H_
 337 1 10   0.000000  24.962178   3.566410   0.000000   # O_1
 338 1 6   0.000000  23.743777   3.152211   0.000000   # C_2
 339 1 10   0.000000  23.329576   1.933811   0.000000   # O_1
 340 1 8   0.000000  22.686778   4.209211   0.000000   # C_R
 341 1 8   0.000000  23.004079   5.535211   0.000000   # C_R
 342 1 8   0.000000  21.360778   3.891912   0.000000   # C_R
 343 1 8   0.000000  22.068180   6.508812   0.000000   # C_R
 344 1 5   0.000000  23.899779   5.780010   0.000000   # H_
 345 1 8   0.000000  20.387179   4.827813   0.000000   # C_R
 346 1 5   0.000000  21.115977   2.996212   0.000000   # H_
 347 1 8   0.000000  20.691080   6.204913   0.000000   # C_R
 348 1 8   0.000000  19.652880   7.243114   0.000000   # C_R
 349 1 5   0.000000  22.337080   7.399112   0.000000   # H_
 350 1 8   0.000000  19.956781   8.620213   0.000000   # C_R
 351 1 5   0.000000  19.496878   4.558914   0.000000   # H_
 352 1 8   0.000000  18.275780   6.939215   0.000000   # C_R
 353 1 8   0.000000  18.983182   9.556114   0.000000   # C_R
 354 2 9   0.000000  21.271699   9.123026  26.644991   # N_3
 355 1 8   0.000000  17.339881   7.912815   0.000000   # C_R
 356 1 5   0.000000  18.006879   6.048915   0.000000   # H_
 357 1 8   0.000000  17.657182   9.238815   0.000000   # C_R
 358 1 6   0.000000  16.600183  10.295816   0.000000   # C_2
 359 1 5   0.000000  19.227983  10.451814   0.000000   # H_
 360 1 5   0.000000  16.444181   7.668016   0.000000   # H_
 361 1 10   0.000000  17.014384  11.514216   0.000000   # O_1
 362 1 10   0.000000  15.381782   9.881617   0.000000   # O_1
 363 2 5   0.000000  21.419635   9.036499  25.638138   # H_
 364 2 7   0.000000  21.656816  10.451987   0.224603   # C_3
 365 2 7   0.000000  23.179452  10.583150   0.147846   # C_3
 366 2 7   0.000000  23.639571  11.968071   0.601595   # C_3
 367 2 5   0.000000  23.178255  12.738045  26.868156   # H_
 368 2 7   0.000000  25.151615  12.106045   0.528455   # C_3
 369 2 5   0.000000  23.310757  12.151230   1.631195   # H_
 370 2 5   0.000000  21.335575  10.596831   1.263341   # H_
 371 2 5   0.000000  21.202986  11.230060  26.495404   # H_
 372 2 5   0.000000  23.514594  10.401163  26.014762   # H_
 373 2 5   0.000000  23.647684   9.811887   0.772322   # H_
 374 2 5   0.000000  25.509860  11.959634  26.400443   # H_
 375 2 5   0.000000  25.644106  11.371801   1.173778   # H_
 376 2 5   0.000000  25.457049  13.104960   0.855397   # H_
 377 1 10   0.000000   0.000000   1.933822   3.566410   # O_1
 378 1 6   0.000000   0.000000   3.152223   3.152211   # C_2
 379 1 10   0.000000   0.000000   3.566424   1.933811   # O_1
 380 1 8   0.000000   0.000000   4.209222   4.209211   # C_R
 381 1 8   0.000000   0.000000   3.891921   5.535211   # C_R
 382 1 8   0.000000   0.000000   5.535222   3.891912   # C_R
 383 1 8   0.000000   0.000000   4.827820   6.508812   # C_R
 384 1 5   0.000000   0.000000   2.996221   5.780010   # H_
 385 1 8   0.000000   0.000000   6.508821   4.827813   # C_R
 386 1 5   0.000000   0.000000   5.780023   2.996212   # H_
 387 1 8   0.000000   0.000000   6.204920   6.204913   # C_R
 388 1 8   0.000000   0.000000   7.243120   7.243114   # C_R
 389 1 5   0.000000   0.000000   4.558920   7.399112   # H_
 390 1 8   0.000000   0.000000   6.939219   8.620213   # C_R
 391 1 5   0.000000   0.000000   7.399122   4.558914   # H_
 392 1 8   0.000000   0.000000   8.620220   6.939215   # C_R
 393 1 8   0.000000   0.000000   7.912818   9.556114   # C_R
 394 2 9   0.000000   0.251009   5.624301   9.123026   # N_3
 395 1 8   0.000000   0.000000   9.556119   7.912815   # C_R
 396 1 5   0.000000   0.000000   8.889121   6.048915   # H_
 397 1 8   0.000000   0.000000   9.238818   9.238815   # C_R
 398 1 6   0.000000   0.000000  10.295817  10.295816   # C_2
 399 1 5   0.000000   0.000000   7.668017  10.451814   # H_
 400 1 5   0.000000   0.000000  10.451819   7.668016   # H_
 401 1 10   0.000000   0.000000   9.881616  11.514216   # O_1
 402 1 10   0.000000   0.000000  11.514218   9.881617   # O_1
 403 2 5   0.000000   1.257862   5.476365   9.036499   # H_
 404 2 7   0.000000  26.671397   5.239184  10.451987   # C_3
 405 2 7   0.000000  26.748154   3.716548  10.583150   # C_3
 406 2 7   0.000000  26.294405   3.256429  11.968071   # C_3
 407 2 5   0.000000   0.027844   3.717745  12.738045   # H_
 408 2 7   0.000000  26.367545   1.744385  12.106045   # C_3
 409 2 5   0.000000  25.264805   3.585243  12.151230   # H_
 410 2 5   0.000000  25.632659   5.560425  10.596831   # H_
 411 2 5   0.000000   0.400596   5.693014  11.230060   # H_
 412 2 5   0.000000   0.881238   3.381406  10.401163   # H_
 413 2 5   0.000000  26.123678   3.248316   9.811887   # H_
 414 2 5   0.000000   0.495557   1.386140  11.959634   # H_
 415 2 5   0.000000  25.722222   1.251894  11.371801   # H_
 416 2 5   0.000000  26.040603   1.438951  13.104960   # H_
 417 1 10   0.000000   0.000000   1.933822  23.329590   # O_1
 418 1 6   0.000000   0.000000   3.152223  23.743789   # C_2
 419 1 10   0.000000   0.000000   3.566424  24.962189   # O_1
 420 1 8   0.000000   0.000000   4.209222  22.686789   # C_R
 421 1 8   0.000000   0.000000   3.891921  21.360789   # C_R
 422 1 8   0.000000   0.000000   5.535222  23.004088   # C_R
 423 1 8   0.000000   0.000000   4.827820  20.387188   # C_R
 424 1 5   0.000000   0.000000   2.996221  21.115990   # H_
 425 1 8   0.000000   0.000000   6.508821  22.068187   # C_R
 426 1 5   0.000000   0.000000   5.780023  23.899788   # H_
 427 1 8   0.000000   0.000000   6.204920  20.691087   # C_R
 428 1 8   0.000000   0.000000   7.243120  19.652886   # C_R
 429 1 5   0.000000   0.000000   4.558920  19.496888   # H_
 430 1 8   0.000000   0.000000   6.939219  18.275787   # C_R
 431 1 5   0.000000   0.000000   7.399122  22.337086   # H_
 432 1 8   0.000000   0.000000   8.620220  19.956785   # C_R
 433 1 8   0.000000   0.000000   7.912818  17.339886   # C_R
 434 2 9   0.000000  26.644991   5.624301  17.772974   # N_3
 435 1 8   0.000000   0.000000   9.556119  18.983185   # C_R
 436 1 5   0.000000   0.000000   8.889121  20.847085   # H_
 437 1 8   0.000000   0.000000   9.238818  17.657185   # C_R
 438 1 6   0.000000   0.000000  10.295817  16.600184   # C_2
 439 1 5   0.000000   0.000000   7.668017  16.444186   # H_
 440 1 5   0.000000   0.000000  10.451819  19.227984   # H_
 441 1 10   0.000000   0.000000   9.881616  15.381784   # O_1
 442 1 10   0.000000   0.000000  11.514218  17.014383   # O_1
 443 2 5   0.000000  25.638138   5.476365  17.859501   # H_
 444 2 7   0.000000   0.224603   5.239184  16.444013   # C_3
 445 2 7   0.000000   0.147846   3.716548  16.312850   # C_3
 446 2 7   0.000000   0.601595   3.256429  14.927929   # C_3
 447 2 5   0.000000  26.868156   3.717745  14.157955   # H_
 448 2 7   0.000000   0.528455   1.744385  14.789955   # C_3
 449 2 5   0.000000   1.631195   3.585243  14.744770   # H_
 450 2 5   0.000000   1.263341   5.560425  16.299169   # H_
 451 2 5   0.000000  26.495404   5.693014  15.665940   # H_
 452 2 5   0.000000  26.014762   3.381406  16.494837   # H_
 453 2 5   0.000000   0.772322   3.248316  17.084113   # H_
 454 2 5   0.000000  26.400443   1.386140  14.936366   # H_
 455 2 5   0.000000   1.173778   1.251894  15.524199   # H_
 456 2 5   0.000000   0.855397   1.438951  13.791040   # H_
 457 1 10   0.000000   0.000000  24.962178  23.329590   # O_1
 458 1 6   0.000000   0.000000  23.743777  23.743789   # C_2