 (written by mofun)

1008 atoms
672 bonds
1392 angles
2256 dihedrals
0 impropers

10 atom types
4 bond types
8 angle types
13 dihedral types
   0.000000  20.700400 xlo xhi
   0.000000  20.700400 ylo yhi
   0.000000  20.700400 zlo zhi

Masses

 1 91.2240   # Zr3+4
 2 15.9994   # O_3
 3 12.0107   # C_3
 4 1.0079   # H_
 5 1.0079   # H_
 6 12.0107   # C_2
 7 12.0107   # C_3
 8 12.0107   # C_R
 9 14.0067   # N_R
 10 15.9994   # O_1

Pair Coeffs

 1   0.069000   2.783168 # Zr3+4
 2   0.060000   3.118146 # O_3
 3   0.105000   3.430851 # C_3
 4   0.044000   2.571134 # H_
 5 0.044000 2.571134   # H_
 6 0.105000 3.430851   # C_2
 7 0.105000 3.430851   # C_3
 8 0.105000 3.430851   # C_R
 9 0.069000 3.260689   # N_R
 10 0.060000 3.118146   # O_1

Bond Coeffs

 1 561.491352 1.422196   # C_R N_R
 2 529.724731 1.450075   # C_3 N_R
 3 331.069389 1.109401   # C_3 H_
 4 349.795899 1.514000   # C_3 C_3

Angle Coeffs

 1 cosine/periodic  282.674883  -1  3   # C_R C_R N_R
 2 cosine/periodic  197.156456  -1  3   # C_3 N_R C_R
 3 cosine/periodic  191.548677  -1  3   # C_3 N_R C_3
 4 fourier  303.594562  0.343737  0.374972  0.281246   # C_3 C_3 N_R
 5 fourier  170.007371  0.343737  0.374972  0.281246   # H_ C_3 N_R
 6 fourier  117.318683  0.343737  0.374972  0.281246   # C_3 C_3 H_
 7 fourier  75.498766  0.343737  0.374972  0.281246   # H_ C_3 H_
 8 fourier  214.211821  0.343737  0.374972  0.281246   # C_3 C_3 C_3

Dihedral Coeffs

 1 harmonic 1.250000 -1 2   # C_3 N_R C_R C_R M=4
 2 harmonic 3.368555 -1 2   # C_2 C_R C_R N_R M=4
 3 harmonic 3.368555 -1 2   # C_R C_R C_R N_R M=4
 4 harmonic 3.368555 -1 2   # H_ C_R C_R N_R M=4
 5 harmonic 0.083333 -1 6   # C_3 C_3 N_R C_R M=6
 6 harmonic 0.083333 -1 6   # C_R N_R C_3 H_ M=6
 7 harmonic 0.083333 -1 6   # C_3 C_3 N_R C_3 M=6
 8 harmonic 0.083333 -1 6   # C_3 N_R C_3 H_ M=6
 9 harmonic 0.117722 1 3   # C_3 C_3 C_3 N_R M=9
 10 harmonic 0.117722 1 3   # H_ C_3 C_3 N_R M=9
 11 harmonic 0.117722 1 3   # C_3 C_3 C_3 H_ M=9
 12 harmonic 0.117722 1 3   # H_ C_3 C_3 H_ M=9
 13 harmonic 0.117722 1 3   # C_3 C_3 C_3 C_3 M=9

Atoms

 1 1 1   0.000000   2.481771   0.000000   0.000000   # Zr3+4
 2 1 1   0.000000   2.481771  10.350200  10.350200   # Zr3+4
 3 1 1   0.000000  12.831971   0.000000  10.350200   # Zr3+4
 4 1 1   0.000000  12.831971  10.350200   0.000000   # Zr3+4
 5 1 1   0.000000  18.218629   0.000000   0.000000   # Zr3+4
 6 1 1   0.000000  18.218629  10.350200  10.350200   # Zr3+4
 7 1 1   0.000000   7.868429   0.000000  10.350200   # Zr3+4
 8 1 1   0.000000   7.868429  10.350200   0.000000   # Zr3+4
 9 1 1   0.000000   0.000000   2.481771   0.000000   # Zr3+4
 10 1 1   0.000000   0.000000  12.831971  10.350200   # Zr3+4
 11 1 1   0.000000  10.350200   2.481771  10.350200   # Zr3+4
 12 1 1   0.000000  10.350200  12.831971   0.000000   # Zr3+4
 13 1 1   0.000000   0.000000  18.218629   0.000000   # Zr3+4
 14 1 1   0.000000   0.000000   7.868429  10.350200   # Zr3+4
 15 1 1   0.000000  10.350200  18.218629  10.350200   # Zr3+4
 16 1 1   0.000000  10.350200   7.868429   0.000000   # Zr3+4
 17 1 1   0.000000   0.000000   0.000000   2.481771   # Zr3+4
 18 1 1   0.000000   0.000000  10.350200  12.831971   # Zr3+4
 19 1 1   0.000000  10.350200   0.000000  12.831971   # Zr3+4
 20 1 1   0.000000  10.350200  10.350200   2.481771   # Zr3+4
 21 1 1   0.000000   0.000000   0.000000  18.218629   # Zr3+4
 22 1 1   0.000000   0.000000  10.350200   7.868429   # Zr3+4
 23 1 1   0.000000  10.350200   0.000000   7.868429   # Zr3+4
 24 1 1   0.000000  10.350200  10.350200  18.218629   # Zr3+4
 25 1 2   0.000000   1.161292   9.188908   9.188908   # O_3
 26 1 2   0.000000  11.511492  19.539108   9.188908   # O_3
 27 1 2   0.000000  11.511492   9.188908  19.539108   # O_3
 28 1 2   0.000000   9.188908   1.161292   9.188908   # O_3
 29 1 2   0.000000   9.188908  11.511492  19.539108   # O_3
 30 1 2   0.000000  19.539108  19.539108   1.161292   # O_3
 31 1 2   0.000000  19.539108   9.188908  11.511492   # O_3
 32 1 2   0.000000   1.161292   1.161292   1.161292   # O_3
 33 1 2   0.000000  11.511492  11.511492   1.161292   # O_3
 34 1 2   0.000000  19.539108   1.161292   1.161292   # O_3
 35 1 2   0.000000  19.539108  11.511492  11.511492   # O_3
 36 1 2   0.000000   9.188908   1.161292  11.511492   # O_3
 37 1 2   0.000000   9.188908  11.511492   1.161292   # O_3
 38 1 2   0.000000   1.161292  19.539108   1.161292   # O_3
 39 1 2   0.000000   1.161292   9.188908  11.511492   # O_3
 40 1 2   0.000000  11.511492  19.539108  11.511492   # O_3
 41 1 2   0.000000  11.511492   9.188908   1.161292   # O_3
 42 1 2   0.000000  19.539108  19.539108  19.539108   # O_3
 43 1 2   0.000000  19.539108   9.188908   9.188908   # O_3
 44 1 2   0.000000   9.188908  19.539108   9.188908   # O_3
 45 1 2   0.000000   9.188908   9.188908  19.539108   # O_3
 46 1 2   0.000000   1.161292   1.161292  19.539108   # O_3
 47 1 2   0.000000   1.161292  11.511492   9.188908   # O_3
 48 1 2   0.000000  11.511492   1.161292   9.188908   # O_3
 49 1 6   0.000000   3.179581   0.000000  17.520819   # C_2
 50 1 10   0.000000   3.528595   0.000000  18.727815   # O_1
 51 1 10   0.000000   1.972577  20.700400  17.171832   # O_1
 52 1 8   0.000000   4.243569   0.000000  16.456806   # C_R
 53 1 8   0.000000   3.816555  20.700400  15.162811   # C_R
 54 1 5   0.000000   2.700552  20.700400  14.930824   # H_
 55 2 9   0.000000   4.205960   0.001851  12.913679   # N_R
 56 1 8   0.000000   4.812543  20.700400  14.167800   # C_R
 57 1 8   0.000000   6.106548   0.000000  14.593785   # C_R
 58 1 8   0.000000   6.532563   0.000000  15.887781   # C_R
 59 1 8   0.000000   5.537574   0.000000  16.883792   # C_R
 60 2 9   0.000000   5.769587   0.000000  17.999789   # N_R
 61 1 5   0.000000   7.648566   0.000000  16.119768   # H_
 62 1 10   0.000000   8.377540   0.000000  13.878760   # O_1
 63 1 6   0.000000   7.170536   0.000000  13.529773   # C_2
 64 1 10   0.000000   6.821523  20.700400  12.322777   # O_1
 65 2 7   0.000000   4.240593  19.470564  12.134777   # C_3
 66 2 7   0.000000   4.336818   1.177426  12.061837   # C_3
 67 2 5   0.000000   5.203162   1.816009  12.274750   # H_
 68 2 5   0.000000   3.443739   1.799377  12.193572   # H_
 69 2 7   0.000000   4.372389   0.627410  10.632684   # C_3
 70 2 7   0.000000   3.769439  19.935499  10.759320   # C_3
 71 2 5   0.000000   5.402491   0.560465  10.270393   # H_
 72 2 5   0.000000   3.817890   1.260560   9.932861   # H_
 73 2 5   0.000000   3.548800  18.726364  12.545259   # H_
 74 2 5   0.000000   5.227630  19.008985  12.073386   # H_
 75 2 5   0.000000   4.089265  19.260647   9.957361   # H_
 76 2 5   0.000000   2.676717  20.000035  10.736476   # H_
 77 2 7   0.000000   5.777891  19.357805  18.694501   # C_3
 78 2 7   0.000000   6.908532   0.736190  18.583368   # C_3
 79 2 5   0.000000   7.348916   1.494091  17.923591   # H_
 80 2 7   0.000000   7.926572  20.360570  18.962826   # C_3
 81 2 5   0.000000   6.566368   1.257055  19.486117   # H_
 82 2 5   0.000000   8.436107  19.956596  18.080256   # H_
 83 2 7   0.000000   7.036941  19.299895  19.560200   # C_3
 84 2 5   0.000000   8.687966   0.016949  19.660367   # H_
 85 2 5   0.000000   5.774239  18.524529  17.978286   # H_
 86 2 5   0.000000   4.930906  19.201011  19.369888   # H_
 87 2 5   0.000000   6.792974  19.555903  20.598543   # H_
 88 2 5   0.000000   7.488929  18.303427  19.559920   # H_
 89 1 6   0.000000   3.179581  10.350200   7.170619   # C_2
 90 1 10   0.000000   3.528595  10.350200   8.377615   # O_1
 91 1 10   0.000000   1.972577  10.350200   6.821632   # O_1
 92 1 8   0.000000   4.243569  10.350200   6.106606   # C_R
 93 1 8   0.000000   3.816555  10.350200   4.812611   # C_R
 94 1 5   0.000000   2.700552  10.350200   4.580624   # H_
 95 2 9   0.000000   4.205960  10.352051   2.563479   # N_R
 96 1 8   0.000000   4.812543  10.350200   3.817600   # C_R
 97 1 8   0.000000   6.106548  10.350200   4.243585   # C_R
 98 1 8   0.000000   6.532563  10.350200   5.537581   # C_R
 99 1 8   0.000000   5.537574  10.350200   6.533592   # C_R
 100 2 9   0.000000   5.769587  10.350200   7.649589   # N_R
 101 1 5   0.000000   7.648566  10.350200   5.769568   # H_
 102 1 10   0.000000   8.377540  10.350200   3.528560   # O_1
 103 1 6   0.000000   7.170536  10.350200   3.179573   # C_2
 104 1 10   0.000000   6.821523  10.350200   1.972577   # O_1
 105 2 7   0.000000   4.240593   9.120364   1.784577   # C_3
 106 2 7   0.000000   4.336818  11.527626   1.711637   # C_3
 107 2 5   0.000000   5.203162  12.166209   1.924550   # H_
 108 2 5   0.000000   3.443739  12.149577   1.843372   # H_
 109 2 7   0.000000   4.372389  10.977610   0.282484   # C_3
 110 2 7   0.000000   3.769439   9.585299   0.409120   # C_3
 111 2 5   0.000000   5.402491  10.910665  20.620593   # H_
 112 2 5   0.000000   3.817890  11.610760  20.283061   # H_
 113 2 5   0.000000   3.548800   8.376164   2.195059   # H_
 114 2 5   0.000000   5.227630   8.658785   1.723186   # H_
 115 2 5   0.000000   4.089265   8.910447  20.307561   # H_
 116 2 5   0.000000   2.676717   9.649835   0.386276   # H_
 117 2 7   0.000000   5.777891   9.007605   8.344301   # C_3
 118 2 7   0.000000   6.908532  11.086390   8.233168   # C_3
 119 2 5   0.000000   7.348916  11.844291   7.573391   # H_
 120 2 7   0.000000   7.926572  10.010370   8.612626   # C_3
 121 2 5   0.000000   6.566368  11.607255   9.135917   # H_
 122 2 5   0.000000   8.436107   9.606396   7.730056   # H_
 123 2 7   0.000000   7.036941   8.949695   9.210000   # C_3
 124 2 5   0.000000   8.687966  10.367149   9.310167   # H_
 125 2 5   0.000000   5.774239   8.174329   7.628086   # H_
 126 2 5   0.000000   4.930906   8.850811   9.019688   # H_
 127 2 5   0.000000   6.792974   9.205703  10.248343   # H_
 128 2 5   0.000000   7.488929   7.953227   9.209720   # H_
 129 1 6   0.000000  13.529781   0.000000   7.170619   # C_2
 130 1 10   0.000000  13.878795   0.000000   8.377615   # O_1
 131 1 10   0.000000  12.322777  20.700400   6.821632   # O_1
 132 1 8   0.000000  14.593769   0.000000   6.106606   # C_R
 133 1 8   0.000000  14.166755  20.700400   4.812611   # C_R
 134 1 5   0.000000  13.050752  20.700400   4.580624   # H_
 135 2 9   0.000000  14.556160   0.001851   2.563479   # N_R
 136 1 8   0.000000  15.162743  20.700400   3.817600   # C_R
 137 1 8   0.000000  16.456748   0.000000   4.243585   # C_R
 138 1 8   0.000000  16.882763   0.000000   5.537581   # C_R
 139 1 8   0.000000  15.887774   0.000000   6.533592   # C_R
 140 2 9   0.000000  16.119787   0.000000   7.649589   # N_R
 141 1 5   0.000000  17.998766   0.000000   5.769568   # H_
 142 1 10   0.000000  18.727740   0.000000   3.528560   # O_1
 143 1 6   0.000000  17.520736   0.000000   3.179573   # C_2
 144 1 10   0.000000  17.171723  20.700400   1.972577   # O_1
 145 2 7   0.000000  14.590793  19.470564   1.784577   # C_3
 146 2 7   0.000000  14.687018   1.177426   1.711637   # C_3
 147 2 5   0.000000  15.553362   1.816009   1.924550   # H_
 148 2 5   0.000000  13.793939   1.799377   1.843372   # H_
 149 2 7   0.000000  14.722589   0.627410   0.282484   # C_3
 150 2 7   0.000000  14.119639  19.935499   0.409120   # C_3
 151 2 5   0.000000  15.752691   0.560465  20.620593   # H_
 152 2 5   0.000000  14.168090   1.260560  20.283061   # H_
 153 2 5   0.000000  13.899000  18.726364   2.195059   # H_
 154 2 5   0.000000  15.577830  19.008985   1.723186   # H_
 155 2 5   0.000000  14.439465  19.260647  20.307561   # H_
 156 2 5   0.000000  13.026917  20.000035   0.386276   # H_
 157 2 7   0.000000  16.128091  19.357805   8.344301   # C_3
 158 2 7   0.000000  17.258732   0.736190   8.233168   # C_3
 159 2 5   0.000000  17.699116   1.494091   7.573391   # H_
 160 2 7   0.000000  18.276772  20.360570   8.612626   # C_3
 161 2 5   0.000000  16.916568   1.257055   9.135917   # H_
 162 2 5   0.000000  18.786307  19.956596   7.730056   # H_
 163 2 7   0.000000  17.387141  19.299895   9.210000   # C_3
 164 2 5   0.000000  19.038166   0.016949   9.310167   # H_
 165 2 5   0.000000  16.124439  18.524529   7.628086   # H_
 166 2 5   0.000000  15.281106  19.201011   9.019688   # H_
 167 2 5   0.000000  17.143174  19.555903  10.248343   # H_
 168 2 5   0.000000  17.839129  18.303427   9.209720   # H_
 169 1 6   0.000000  13.529781  10.350200  17.520819   # C_2
 170 1 10   0.000000  13.878795  10.350200  18.727815   # O_1
 171 1 10   0.000000  12.322777  10.350200  17.171832   # O_1
 172 1 8   0.000000  14.593769  10.350200  16.456806   # C_R
 173 1 8   0.000000  14.166755  10.350200  15.162811   # C_R
 174 1 5   0.000000  13.050752  10.350200  14.930824   # H_
 175 2 9   0.000000  14.556160  10.352051  12.913679   # N_R
 176 1 8   0.000000  15.162743  10.350200  14.167800   # C_R
 177 1 8   0.000000  16.456748  10.350200  14.593785   # C_R
 178 1 8   0.000000  16.882763  10.350200  15.887781   # C_R
 179 1 8   0.000000  15.887774  10.350200  16.883792   # C_R
 180 2 9   0.000000  16.119787  10.350200  17.999789   # N_R
 181 1 5   0.000000  17.998766  10.350200  16.119768   # H_
 182 1 10   0.000000  18.727740  10.350200  13.878760   # O_1
 183 1 6   0.000000  17.520736  10.350200  13.529773   # C_2
 184 1 10   0.000000  17.171723  10.350200  12.322777   # O_1
 185 2 7   0.000000  14.590793   9.120364  12.134777   # C_3
 186 2 7   0.000000  14.687018  11.527626  12.061837   # C_3
 187 2 5   0.000000  15.553362  12.166209  12.274750   # H_
 188 2 5   0.000000  13.793939  12.149577  12.193572   # H_
 189 2 7   0.000000  14.722589  10.977610  10.632684   # C_3
 190 2 7   0.000000  14.119639   9.585299  10.759320   # C_3
 191 2 5   0.000000  15.752691  10.910665  10.270393   # H_
 192 2 5   0.000000  14.168090  11.610760   9.932861   # H_
 193 2 5   0.000000  13.899000   8.376164  12.545259   # H_
 194 2 5   0.000000  15.577830   8.658785  12.073386   # H_
 195 2 5   0.000000  14.439465   8.910447   9.957361   # H_
 196 2 5   0.000000  13.026917   9.649835  10.736476   # H_
 197 2 7   0.000000  16.128091   9.007605  18.694501   # C_3
 198 2 7   0.000000  17.258732  11.086390  18.583368   # C_3
 199 2 5   0.000000  17.699116  11.844291  17.923591   # H_
 200 2 7   0.000000  18.276772  10.010370  18.962826   # C_3
 201 2 5   0.000000  16.916568  11.607255  19.486117   # H_
 202 2 5   0.000000  18.786307   9.606396  18.080256   # H_
 203 2 7   0.000000  17.387141   8.949695  19.560200   # C_3
 204 2 5   0.000000  19.038166  10.367149  19.660367   # H_
 205 2 5   0.000000  16.124439   8.174329  17.978286   # H_
 206 2 5   0.000000  15.281106   8.850811  19.369888   # H_
 207 2 5   0.000000  17.143174   9.205703  20.598543   # H_
 208 2 5   0.000000  17.839129   7.953227  19.559920   # H_
 209 1 6   0.000000  17.520819   0.000000  17.520819   # C_2
 210 1 10   0.000000  17.171805   0.000000  18.727815   # O_1
 211 1 10   0.000000  18.727823   0.000000  17.171832   # O_1
 212 1 8   0.000000  16.456831   0.000000  16.456806   # C_R
 213 1 8   0.000000  16.883845   0.000000  15.162811   # C_R
 214 1 5   0.000000  17.999848   0.000000  14.930824   # H_
 215 2 9   0.000000  16.494440  20.698549  12.913679   # N_R
 216 1 8   0.000000  15.887857   0.000000  14.167800   # C_R
 217 1 8   0.000000  14.593852   0.000000  14.593785   # C_R
 218 1 8   0.000000  14.167837   0.000000  15.887781   # C_R
 219 1 8   0.000000  15.162826   0.000000  16.883792   # C_R
 220 2 9   0.000000  14.930813   0.000000  17.999789   # N_R
 221 1 5   0.000000  13.051834   0.000000  16.119768   # H_
 222 1 10   0.000000  12.322860   0.000000  13.878760   # O_1
 223 1 6   0.000000  13.529864   0.000000  13.529773   # C_2
 224 1 10   0.000000  13.878877   0.000000  12.322777   # O_1
 225 2 7   0.000000  16.459807   1.229836  12.134777   # C_3
 226 2 7   0.000000  16.363582  19.522974  12.061837   # C_3
 227 2 5   0.000000  15.497238  18.884391  12.274750   # H_
 228 2 5   0.000000  17.256661  18.901023  12.193572   # H_
 229 2 7   0.000000  16.328011  20.072990  10.632684   # C_3
 230 2 7   0.000000  16.930961   0.764901  10.759320   # C_3
 231 2 5   0.000000  15.297909  20.139935  10.270393   # H_
 232 2 5   0.000000  16.882510  19.439840   9.932861   # H_
 233 2 5   0.000000  17.151600   1.974036  12.545259   # H_
 234 2 5   0.000000  15.472770   1.691415  12.073386   # H_
 235 2 5   0.000000  16.611135   1.439753   9.957361   # H_
 236 2 5   0.000000  18.023683   0.700365  10.736476   # H_
 237 2 7   0.000000  14.922509   1.342595  18.694501   # C_3
 238 2 7   0.000000  13.791868  19.964210  18.583368   # C_3
 239 2 5   0.000000  13.351484  19.206309  17.923591   # H_
 240 2 7   0.000000  12.773828   0.339830  18.962826   # C_3
 241 2 5   0.000000  14.134032  19.443345  19.486117   # H_
 242 2 5   0.000000  12.264293   0.743804  18.080256   # H_
 243 2 7   0.000000  13.663459   1.400505  19.560200   # C_3
 244 2 5   0.000000  12.012434  20.683451  19.660367   # H_
 245 2 5   0.000000  14.926161   2.175871  17.978286   # H_
 246 2 5   0.000000  15.769494   1.499389  19.369888   # H_
 247 2 5   0.000000  13.907426   1.144497  20.598543   # H_
 248 2 5   0.000000  13.211471   2.396973  19.559920   # H_
 249 1 6   0.000000  17.520819  10.350200   7.170619   # C_2
 250 1 10   0.000000  17.171805  10.350200   8.377615   # O_1
 251 1 10   0.000000  18.727823  10.350200   6.821632   # O_1
 252 1 8   0.000000  16.456831  10.350200   6.106606   # C_R
 253 1 8   0.000000  16.883845  10.350200   4.812611   # C_R
 254 1 5   0.000000  17.999848  10.350200   4.580624   # H_
 255 2 9   0.000000  16.494440  10.348349   2.563479   # N_R
 256 1 8   0.000000  15.887857  10.350200   3.817600   # C_R
 257 1 8   0.000000  14.593852  10.350200   4.243585   # C_R
 258 1 8   0.000000  14.167837  10.350200   5.537581   # C_R
 259 1 8   0.000000  15.162826  10.350200   6.533592   # C_R
 260 2 9   0.000000  14.930813  10.350200   7.649589   # N_R
 261 1 5   0.000000  13.051834  10.350200   5.769568   # H_
 262 1 10   0.000000  12.322860  10.350200   3.528560   # O_1
 263 1 6   0.000000  13.529864  10.350200   3.179573   # C_2
 264 1 10   0.000000  13.878877  10.350200   1.972577   # O_1
 265 2 7   0.000000  16.459807  11.580036   1.784577   # C_3
 266 2 7   0.000000  16.363582   9.172774   1.711637   # C_3
 267 2 5   0.000000  15.497238   8.534191   1.924550   # H_
 268 2 5   0.000000  17.256661   8.550823   1.843372   # H_
 269 2 7   0.000000  16.328011   9.722790   0.282484   # C_3
 270 2 7   0.000000  16.930961  11.115101   0.409120   # C_3
 271 2 5   0.000000  15.297909   9.789735  20.620593   # H_
 272 2 5   0.000000  16.882510   9.089640  20.283061   # H_
 273 2 5   0.000000  17.151600  12.324236   2.195059   # H_
 274 2 5   0.000000  15.472770  12.041615   1.723186   # H_
 275 2 5   0.000000  16.611135  11.789953  20.307561   # H_
 276 2 5   0.000000  18.023683  11.050565   0.386276   # H_
 277 2 7   0.000000  14.922509  11.692795   8.344301   # C_3
 278 2 7   0.000000  13.791868   9.614010   8.233168   # C_3
 279 2 5   0.000000  13.351484   8.856109   7.573391   # H_
 280 2 7   0.000000  12.773828  10.690030   8.612626   # C_3
 281 2 5   0.000000  14.134032   9.093145   9.135917   # H_
 282 2 5   0.000000  12.264293  11.094004   7.730056   # H_
 283 2 7   0.000000  13.663459  11.750705   9.210000   # C_3
 284 2 5   0.000000  12.012434  10.333251   9.310167   # H_
 285 2 5   0.000000  14.926161  12.526071   7.628086   # H_
 286 2 5   0.000000  15.769494  11.849589   9.019688   # H_
 287 2 5   0.000000  13.907426  11.494697  10.248343   # H_
 288 2 5   0.000000  13.211471  12.747173   9.209720   # H_
 289 1 6   0.000000   7.170619   0.000000   7.170619   # C_2
 290 1 10   0.000000   6.821605   0.000000   8.377615   # O_1
 291 1 10   0.000000   8.377623   0.000000   6.821632   # O_1
 292 1 8   0.000000   6.106631   0.000000   6.106606   # C_R
 293 1 8   0.000000   6.533645   0.000000   4.812611   # C_R
 294 1 5   0.000000   7.649648   0.000000   4.580624   # H_
 295 2 9   0.000000   6.144240  20.698549   2.563479   # N_R
 296 1 8   0.000000   5.537657   0.000000   3.817600   # C_R
 297 1 8   0.000000   4.243652   0.000000   4.243585   # C_R
 298 1 8   0.000000   3.817637   0.000000   5.537581   # C_R
 299 1 8   0.000000   4.812626   0.000000   6.533592   # C_R
 300 2 9   0.000000   4.580613   0.000000   7.649589   # N_R
 301 1 5   0.000000   2.701634   0.000000   5.769568   # H_
 302 1 10   0.000000   1.972660   0.000000   3.528560   # O_1
 303 1 6   0.000000   3.179664   0.000000   3.179573   # C_2
 304 1 10   0.000000   3.528677   0.000000   1.972577   # O_1
 305 2 7   0.000000   6.109607   1.229836   1.784577   # C_3
 306 2 7   0.000000   6.013382  19.522974   1.711637   # C_3
 307 2 5   0.000000   5.147038  18.884391   1.924550   # H_
 308 2 5   0.000000   6.906461  18.901023   1.843372   # H_
 309 2 7   0.000000   5.977811  20.072990   0.282484   # C_3
 310 2 7   0.000000   6.580761   0.764901   0.409120   # C_3
 311 2 5   0.000000   4.947709  20.139935  20.620593   # H_
 312 2 5   0.000000   6.532310  19.439840  20.283061   # H_
 313 2 5   0.000000   6.801400   1.974036   2.195059   # H_
 314 2 5   0.000000   5.122570   1.691415   1.723186   # H_
 315 2 5   0.000000   6.260935   1.439753  20.307561   # H_
 316 2 5   0.000000   7.673483   0.700365   0.386276   # H_
 317 2 7   0.000000   4.572309   1.342595   8.344301   # C_3
 318 2 7   0.000000   3.441668  19.964210   8.233168   # C_3
 319 2 5   0.000000   3.001284  19.206309   7.573391   # H_
 320 2 7   0.000000   2.423628   0.339830   8.612626   # C_3
 321 2 5   0.000000   3.783832  19.443345   9.135917   # H_
 322 2 5   0.000000   1.914093   0.743804   7.730056   # H_
 323 2 7   0.000000   3.313259   1.400505   9.210000   # C_3
 324 2 5   0.000000   1.662234  20.683451   9.310167   # H_
 325 2 5   0.000000   4.575961   2.175871   7.628086   # H_
 326 2 5   0.000000   5.419294   1.499389   9.019688   # H_
 327 2 5   0.000000   3.557226   1.144497  10.248343   # H_
 328 2 5   0.000000   2.861271   2.396973   9.209720   # H_
 329 1 6   0.000000   7.170619  10.350200  17.520819   # C_2
 330 1 10   0.000000   6.821605  10.350200  18.727815   # O_1
 331 1 10   0.000000   8.377623  10.350200  17.171832   # O_1
 332 1 8   0.000000   6.106631  10.350200  16.456806   # C_R
 333 1 8   0.000000   6.533645  10.350200  15.162811   # C_R
 334 1 5   0.000000   7.649648  10.350200  14.930824   # H_
 335 2 9   0.000000   6.144240  10.348349  12.913679   # N_R
 336 1 8   0.000000   5.537657  10.350200  14.167800   # C_R
 337 1 8   0.000000   4.243652  10.350200  14.593785   # C_R
 338 1 8   0.000000   3.817637  10.350200  15.887781   # C_R
 339 1 8   0.000000   4.812626  10.350200  16.883792   # C_R
 340 2 9   0.000000   4.580613  10.350200  17.999789   # N_R
 341 1 5   0.000000   2.701634  10.350200  16.119768   # H_
 342 1 10   0.000000   1.972660  10.350200  13.878760   # O_1
 343 1 6   0.000000   3.179664  10.350200  13.529773   # C_2
 344 1 10   0.000000   3.528677  10.350200  12.322777   # O_1
 345 2 7   0.000000   6.109607  11.580036  12.134777   # C_3
 346 2 7   0.000000   6.013382   9.172774  12.061837   # C_3
 347 2 5   0.000000   5.147038   8.534191  12.274750   # H_
 348 2 5   0.000000   6.906461   8.550823  12.193572   # H_
 349 2 7   0.000000   5.977811   9.722790  10.632684   # C_3
 350 2 7   0.000000   6.580761  11.115101  10.759320   # C_3
 351 2 5   0.000000   4.947709   9.789735  10.270393   # H_
 352 2 5   0.000000   6.532310   9.089640   9.932861   # H_
 353 2 5   0.000000   6.801400  12.324236  12.545259   # H_
 354 2 5   0.000000   5.122570  12.041615  12.073386   # H_
 355 2 5   0.000000   6.260935  11.789953   9.957361   # H_
 356 2 5   0.000000   7.673483  11.050565  10.736476   # H_
 357 2 7   0.000000   4.572309  11.692795  18.694501   # C_3
 358 2 7   0.000000   3.441668   9.614010  18.583368   # C_3
 359 2 5   0.000000   3.001284   8.856109  17.923591   # H_
 360 2 7   0.000000   2.423628  10.690030  18.962826   # C_3
 361 2 5   0.000000   3.783832   9.093145  19.486117   # H_
 362 2 5   0.000000   1.914093  11.094004  18.080256   # H_
 363 2 7   0.000000   3.313259  11.750705  19.560200   # C_3
 364 2 5   0.000000   1.662234  10.333251  19.660367   # H_
 365 2 5   0.000000   4.575961  12.526071  17.978286   # H_
 366 2 5   0.000000   5.419294  11.849589  19.369888   # H_
 367 2 5   0.000000   3.557226  11.494697  20.598543   # H_
 368 2 5   0.000000   2.861271  12.747173  19.559920   # H_
 369 1 6   0.000000  17.520819   3.179581   0.000000   # C_2
 370 1 10   0.000000  18.727815   3.528595  20.700400   # O_1
 371 1 10   0.000000  17.171832   1.972577   0.000000   # O_1
 372 1 8   0.000000  16.456806   4.243569  20.700400   # C_R
 373 1 8   0.000000  15.162811   3.816555   0.000000   # C_R
 374 1 5   0.000000  14.930824   2.700552   0.000000   # H_
 375 2 9   0.000000  12.913679   4.205960   0.001851   # N_R
 376 1 8   0.000000  14.167800   4.812543   0.000000   # C_R
 377 1 8   0.000000  14.593785   6.106548  20.700400   # C_R
 378 1 8   0.000000  15.887781   6.532563  20.700400   # C_R
 379 1 8   0.000000  16.883792   5.537574  20.700400   # C_R
 380 2 9   0.000000  17.999789   5.769587  20.700400   # N_R
 381 1 5   0.000000  16.119768   7.648566  20.700400   # H_
 382 1 10   0.000000  13.878760   8.377540  20.700400   # O_1
 383 1 6   0.000000  13.529773   7.170536  20.700400   # C_2
 384 1 10   0.000000  12.322777   6.821523   0.000000   # O_1
 385 2 7   0.000000  12.134777   4.240593  19.470564   # C_3
 386 2 7   0.000000  12.061837   4.336818   1.177426   # C_3
 387 2 5   0.000000  12.274750   5.203162   1.816009   # H_
 388 2 5   0.000000  12.193572   3.443739   1.799377   # H_
 389 2 7   0.000000  10.632684   4.372389   0.627410   # C_3
 390 2 7   0.000000  10.759320   3.769439  19.935499   # C_3
 391 2 5   0.000000  10.270393   5.402491   0.560465   # H_
 392 2 5   0.000000   9.932861   3.817890   1.260560   # H_
 393 2 5   0.000000  12.545259   3.548800  18.726364   # H_
 394 2 5   0.000000  12.073386   5.227630  19.008985   # H_
 395 2 5   0.000000   9.957361   4.089265  19.260647   # H_
 396 2 5   0.000000  10.736476   2.676717  20.000035   # H_
 397 2 7   0.000000  18.694501   5.777891  19.357805   # C_3
 398 2 7   0.000000  18.583368   6.908532   0.736190   # C_3
 399 2 5   0.000000  17.923591   7.348916   1.494091   # H_
 400 2 7   0.000000  18.962826   7.926572  20.360570   # C_3
 401 2 5   0.000000  19.486117   6.566368   1.257055   # H_
 402 2 5   0.000000  18.080256   8.436107  19.956596   # H_
 403 2 7   0.000000  19.560200   7.036941  19.299895   # C_3
 404 2 5   0.000000  19.660367   8.687966   0.016949   # H_
 405 2 5   0.000000  17.978286   5.774239  18.524529   # H_
 406 2 5   0.000000  19.369888   4.930906  19.201011   # H_
 407 2 5   0.000000  20.598543   6.792974  19.555903   # H_
 408 2 5   0.000000  19.559920   7.488929  18.303427   # H_
 409 1 6   0.000000  17.520819  13.529781  10.350200   # C_2
 410 1 10   0.000000  18.727815  13.878795  10.350200   # O_1
 411 1 10   0.000000  17.171832  12.322777  10.350200   # O_1
 412 1 8   0.000000  16.456806  14.593769  10.350200   # C_R
 413 1 8   0.000000  15.162811  14.166755  10.350200   # C_R
 414 1 5   0.000000  14.930824  13.050752  10.350200   # H_
 415 2 9   0.000000  12.913679  14.556160  10.352051   # N_R
 416 1 8   0.000000  14.167800  15.162743  10.350200   # C_R
 417 1 8   0.000000  14.593785  16.456748  10.350200   # C_R
 418 1 8   0.000000  15.887781  16.882763  10.350200   # C_R
 419 1 8   0.000000  16.883792  15.887774  10.350200   # C_R
 420 2 9   0.000000  17.999789  16.119787  10.350200   # N_R
 421 1 5   0.000000  16.119768  17.998766  10.350200   # H_
 422 1 10   0.000000  13.878760  18.727740  10.350200   # O_1
 423 1 6   0.000000  13.529773  17.520736  10.350200   # C_2
 424 1 10   0.000000  12.322777  17.171723  10.350200   # O_1
 425 2 7   0.000000  12.134777  14.590793   9.120364   # C_3
 426 2 7   0.000000  12.061837  14.687018  11.527626   # C_3
 427 2 5   0.000000  12.274750  15.553362  12.166209   # H_
 428 2 5   0.000000  12.193572  13.793939  12.149577   # H_
 429 2 7   0.000000  10.632684  14.722589  10.977610   # C_3
 430 2 7   0.000000  10.759320  14.119639   9.585299   # C_3
 431 2 5   0.000000  10.270393  15.752691  10.910665   # H_
 432 2 5   0.000000   9.932861  14.168090  11.610760   # H_
 433 2 5   0.000000  12.545259  13.899000   8.376164   # H_
 434 2 5   0.000000  12.073386  15.577830   8.658785   # H_
 435 2 5   0.000000   9.957361  14.439465   8.910447   # H_
 436 2 5   0.000000  10.736476  13.026917   9.649835   # H_
 437 2 7   0.000000  18.694501  16.128091   9.007605   # C_3
 438 2 7   0.000000  18.583368  17.258732  11.086390   # C_3
 439 2 5   0.000000  17.923591  17.699116  11.844291   # H_
 440 2 7   0.000000  18.962826  18.276772  10.010370   # C_3
 441 2 5   0.000000  19.486117  16.916568  11.607255   # H_
 442 2 5   0.000000  18.080256  18.786307   9.606396   # H_
 443 2 7   0.000000  19.560200  17.387141   8.949695   # C_3
 444 2 5   0.000000  19.660367  19.038166  10.367149   # H_
 445 2 5   0.000000  17.978286  16.124439   8.174329   # H_
 446 2 5   0.000000  19.369888  15.281106   8.850811   # H_
 447 2 5   0.000000  20.598543  17.143174   9.205703   # H_
 448 2 5   0.000000  19.559920  17.839129   7.953227   # H_
 449 1 6   0.000000   7.170619   3.179581  10.350200   # C_2
 450 1 10   0.000000   8.377615   3.528595  10.350200   # O_1
 451 1 10   0.000000   6.821632   1.972577  10.350200   # O_1
 452 1 8   0.000000   6.106606   4.243569  10.350200   # C_R
 453 1 8   0.000000   4.812611   3.816555  10.350200   # C_R
 454 1 5   0.000000   4.580624   2.700552  10.350200   # H_
 455 2 9   0.000000   2.563479   4.205960  10.352051   # N_R
 456 1 8   0.000000   3.817600   4.812543  10.350200   # C_R
 457 1 8   0.000000   4.243585   6.106548  10.350200   # C_R
 458 1 8   0.000000   5.537581   6.532563  10.350200   # C_R
 459 1 8   0.000000   6.533592   5.537574  10.350200   # C_R
 460 2 9   0.000000   7.649589   5.769587  10.350200   # N_R