 (written by mofun)

768 atoms
360 bonds
696 angles
984 dihedrals
0 impropers

10 atom types
5 bond types
9 angle types
14 dihedral types
   0.000000  20.700400 xlo xhi
   0.000000  20.700400 ylo yhi
   0.000000  20.700400 zlo zhi

Masses

 1 91.2240   # Zr3+4
 2 15.9994   # O_3
 3 12.0107   # C_3
 4 1.0079   # H_
 5 1.0079   # H_
 6 12.0107   # C_2
 7 12.0107   # C_3
 8 12.0107   # C_R
 9 14.0067   # N_3
 10 15.9994   # O_1

Pair Coeffs

 1   0.069000   2.783168 # Zr3+4
 2   0.060000   3.118146 # O_3
 3   0.105000   3.430851 # C_3
 4   0.044000   2.571134 # H_
 5 0.044000 2.571134   # H_
 6 0.105000 3.430851   # C_2
 7 0.105000 3.430851   # C_3
 8 0.105000 3.430851   # C_R
 9 0.069000 3.260689   # N_3
 10 0.060000 3.118146   # O_1

Bond Coeffs

 1 560.312976 1.423192   # C_R N_3
 2 527.945261 1.044419   # H_ N_3
 3 528.634538 1.451071   # C_3 N_3
 4 331.069389 1.109401   # C_3 H_
 5 349.795899 1.514000   # C_3 C_3

Angle Coeffs

 1 cosine/periodic  282.369526  -1  3   # C_R C_R N_3
 2 fourier  150.574599  0.317506  0.313225  0.272502   # C_R N_3 H_
 3 fourier  268.482172  0.317506  0.313225  0.272502   # C_3 N_3 C_R
 4 fourier  144.695053  0.317506  0.313225  0.272502   # C_3 N_3 H_
 5 fourier  169.780468  0.343737  0.374972  0.281246   # H_ C_3 N_3
 6 fourier  303.297032  0.343737  0.374972  0.281246   # C_3 C_3 N_3
 7 fourier  75.498766  0.343737  0.374972  0.281246   # H_ C_3 H_
 8 fourier  117.318683  0.343737  0.374972  0.281246   # C_3 C_3 H_
 9 fourier  214.211821  0.343737  0.374972  0.281246   # C_3 C_3 C_3

Dihedral Coeffs

 1 harmonic 3.368555 -1 2   # C_2 C_R C_R N_3 M=4
 2 harmonic 3.368555 -1 2   # C_R C_R C_R N_3 M=4
 3 harmonic 0.125000 -1 6   # C_R C_R N_3 H_ M=4
 4 harmonic 0.125000 -1 6   # C_3 N_3 C_R C_R M=4
 5 harmonic 3.368555 -1 2   # H_ C_R C_R N_3 M=4
 6 harmonic 0.081375 1 3   # C_R N_3 C_3 H_ M=6
 7 harmonic 0.081375 1 3   # C_3 C_3 N_3 C_R M=6
 8 harmonic 0.081375 1 3   # H_ C_3 N_3 H_ M=6
 9 harmonic 0.081375 1 3   # C_3 C_3 N_3 H_ M=6
 10 harmonic 0.117722 1 3   # H_ C_3 C_3 N_3 M=9
 11 harmonic 0.117722 1 3   # C_3 C_3 C_3 N_3 M=9
 12 harmonic 0.117722 1 3   # H_ C_3 C_3 H_ M=9
 13 harmonic 0.117722 1 3   # C_3 C_3 C_3 H_ M=9
 14 harmonic 0.117722 1 3   # C_3 C_3 C_3 C_3 M=9

Atoms

 1 1 1   0.000000   2.481771   0.000000   0.000000   # Zr3+4
 2 1 1   0.000000   2.481771  10.350200  10.350200   # Zr3+4
 3 1 1   0.000000  12.831971   0.000000  10.350200   # Zr3+4
 4 1 1   0.000000  12.831971  10.350200   0.000000   # Zr3+4
 5 1 1   0.000000  18.218629   0.000000   0.000000   # Zr3+4
 6 1 1   0.000000  18.218629  10.350200  10.350200   # Zr3+4
 7 1 1   0.000000   7.868429   0.000000  10.350200   # Zr3+4
 8 1 1   0.000000   7.868429  10.350200   0.000000   # Zr3+4
 9 1 1   0.000000   0.000000   2.481771   0.000000   # Zr3+4
 10 1 1   0.000000   0.000000  12.831971  10.350200   # Zr3+4
 11 1 1   0.000000  10.350200   2.481771  10.350200   # Zr3+4
 12 1 1   0.000000  10.350200  12.831971   0.000000   # Zr3+4
 13 1 1   0.000000   0.000000  18.218629   0.000000   # Zr3+4
 14 1 1   0.000000   0.000000   7.868429  10.350200   # Zr3+4
 15 1 1   0.000000  10.350200  18.218629  10.350200   # Zr3+4
 16 1 1   0.000000  10.350200   7.868429   0.000000   # Zr3+4
 17 1 1   0.000000   0.000000   0.000000   2.481771   # Zr3+4
 18 1 1   0.000000   0.000000  10.350200  12.831971   # Zr3+4
 19 1 1   0.000000  10.350200   0.000000  12.831971   # Zr3+4
 20 1 1   0.000000  10.350200  10.350200   2.481771   # Zr3+4
 21 1 1   0.000000   0.000000   0.000000  18.218629   # Zr3+4
 22 1 1   0.000000   0.000000  10.350200   7.868429   # Zr3+4
 23 1 1   0.000000  10.350200   0.000000   7.868429   # Zr3+4
 24 1 1   0.000000  10.350200  10.350200  18.218629   # Zr3+4
 25 1 2   0.000000   1.161292   9.188908   9.188908   # O_3
 26 1 2   0.000000  11.511492  19.539108   9.188908   # O_3
 27 1 2   0.000000  11.511492   9.188908  19.539108   # O_3
 28 1 2   0.000000   9.188908   1.161292   9.188908   # O_3
 29 1 2   0.000000   9.188908  11.511492  19.539108   # O_3
 30 1 2   0.000000  19.539108  19.539108   1.161292   # O_3
 31 1 2   0.000000  19.539108   9.188908  11.511492   # O_3
 32 1 2   0.000000   1.161292   1.161292   1.161292   # O_3
 33 1 2   0.000000  11.511492  11.511492   1.161292   # O_3
 34 1 2   0.000000  19.539108   1.161292   1.161292   # O_3
 35 1 2   0.000000  19.539108  11.511492  11.511492   # O_3
 36 1 2   0.000000   9.188908   1.161292  11.511492   # O_3
 37 1 2   0.000000   9.188908  11.511492   1.161292   # O_3
 38 1 2   0.000000   1.161292  19.539108   1.161292   # O_3
 39 1 2   0.000000   1.161292   9.188908  11.511492   # O_3
 40 1 2   0.000000  11.511492  19.539108  11.511492   # O_3
 41 1 2   0.000000  11.511492   9.188908   1.161292   # O_3
 42 1 2   0.000000  19.539108  19.539108  19.539108   # O_3
 43 1 2   0.000000  19.539108   9.188908   9.188908   # O_3
 44 1 2   0.000000   9.188908  19.539108   9.188908   # O_3
 45 1 2   0.000000   9.188908   9.188908  19.539108   # O_3
 46 1 2   0.000000   1.161292   1.161292  19.539108   # O_3
 47 1 2   0.000000   1.161292  11.511492   9.188908   # O_3
 48 1 2   0.000000  11.511492   1.161292   9.188908   # O_3
 49 1 6   0.000000   3.179581   0.000000  17.520819   # C_2
 50 1 10   0.000000   3.528595   0.000000  18.727815   # O_1
 51 1 10   0.000000   1.972577  20.700400  17.171832   # O_1
 52 1 8   0.000000   4.243569   0.000000  16.456806   # C_R
 53 1 8   0.000000   3.816555  20.700400  15.162811   # C_R
 54 2 9   0.000000   2.700552  20.700400  14.930824   # N_3
 55 1 5   0.000000   4.580531  20.700400  13.051803   # H_
 56 1 8   0.000000   4.812543  20.700400  14.167800   # C_R
 57 1 8   0.000000   6.106548   0.000000  14.593785   # C_R
 58 1 8   0.000000   6.532563   0.000000  15.887781   # C_R
 59 1 8   0.000000   5.537574   0.000000  16.883792   # C_R
 60 1 5   0.000000   5.769587   0.000000  17.999789   # H_
 61 1 5   0.000000   7.648566   0.000000  16.119768   # H_
 62 1 10   0.000000   8.377540   0.000000  13.878760   # O_1
 63 1 6   0.000000   7.170536   0.000000  13.529773   # C_2
 64 1 10   0.000000   6.821523  20.700400  12.322777   # O_1
 65 2 5   0.000000   2.030036  20.666849  15.718602   # H_
 66 2 7   0.000000   1.941678   0.085541  13.698785   # C_3
 67 2 5   0.000000   2.510735   0.545054  12.882614   # H_
 68 2 5   0.000000   1.083979   0.748811  13.869478   # H_
 69 2 7   0.000000   1.428024  19.403852  13.296282   # C_3
 70 2 5   0.000000   2.263869  18.696352  13.229015   # H_
 71 2 7   0.000000   0.693737  19.455842  11.956925   # C_3
 72 2 5   0.000000   0.755777  19.024653  14.076373   # H_
 73 2 5   0.000000   1.390045  19.761577  11.167263   # H_
 74 2 5   0.000000  20.596260  20.206714  11.994026   # H_
 75 2 7   0.000000   0.091298  18.107559  11.596842   # C_3
 76 2 5   0.000000   0.861363  17.330979  11.552176   # H_
 77 2 5   0.000000  20.303605  18.160017  10.618568   # H_
 78 2 5   0.000000  20.040945  17.806078  12.334298   # H_
 79 1 6   0.000000   3.179581  10.350200   7.170619   # C_2
 80 1 10   0.000000   3.528595  10.350200   8.377615   # O_1
 81 1 10   0.000000   1.972577  10.350200   6.821632   # O_1
 82 1 8   0.000000   4.243569  10.350200   6.106606   # C_R
 83 1 8   0.000000   3.816555  10.350200   4.812611   # C_R
 84 2 9   0.000000   2.700552  10.350200   4.580624   # N_3
 85 1 5   0.000000   4.580531  10.350200   2.701603   # H_
 86 1 8   0.000000   4.812543  10.350200   3.817600   # C_R
 87 1 8   0.000000   6.106548  10.350200   4.243585   # C_R
 88 1 8   0.000000   6.532563  10.350200   5.537581   # C_R
 89 1 8   0.000000   5.537574  10.350200   6.533592   # C_R
 90 1 5   0.000000   5.769587  10.350200   7.649589   # H_
 91 1 5   0.000000   7.648566  10.350200   5.769568   # H_
 92 1 10   0.000000   8.377540  10.350200   3.528560   # O_1
 93 1 6   0.000000   7.170536  10.350200   3.179573   # C_2
 94 1 10   0.000000   6.821523  10.350200   1.972577   # O_1
 95 2 5   0.000000   2.030036  10.316649   5.368402   # H_
 96 2 7   0.000000   1.941678  10.435741   3.348585   # C_3
 97 2 5   0.000000   2.510735  10.895254   2.532414   # H_
 98 2 5   0.000000   1.083979  11.099011   3.519278   # H_
 99 2 7   0.000000   1.428024   9.053652   2.946082   # C_3
 100 2 5   0.000000   2.263869   8.346152   2.878815   # H_
 101 2 7   0.000000   0.693737   9.105642   1.606725   # C_3
 102 2 5   0.000000   0.755777   8.674453   3.726173   # H_
 103 2 5   0.000000   1.390045   9.411377   0.817063   # H_
 104 2 5   0.000000  20.596260   9.856514   1.643826   # H_
 105 2 7   0.000000   0.091298   7.757359   1.246642   # C_3
 106 2 5   0.000000   0.861363   6.980779   1.201976   # H_
 107 2 5   0.000000  20.303605   7.809817   0.268368   # H_
 108 2 5   0.000000  20.040945   7.455878   1.984098   # H_
 109 1 6   0.000000  13.529781   0.000000   7.170619   # C_2
 110 1 10   0.000000  13.878795   0.000000   8.377615   # O_1
 111 1 10   0.000000  12.322777  20.700400   6.821632   # O_1
 112 1 8   0.000000  14.593769   0.000000   6.106606   # C_R
 113 1 8   0.000000  14.166755  20.700400   4.812611   # C_R
 114 2 9   0.000000  13.050752  20.700400   4.580624   # N_3
 115 1 5   0.000000  14.930731  20.700400   2.701603   # H_
 116 1 8   0.000000  15.162743  20.700400   3.817600   # C_R
 117 1 8   0.000000  16.456748   0.000000   4.243585   # C_R
 118 1 8   0.000000  16.882763   0.000000   5.537581   # C_R
 119 1 8   0.000000  15.887774   0.000000   6.533592   # C_R
 120 1 5   0.000000  16.119787   0.000000   7.649589   # H_
 121 1 5   0.000000  17.998766   0.000000   5.769568   # H_
 122 1 10   0.000000  18.727740   0.000000   3.528560   # O_1
 123 1 6   0.000000  17.520736   0.000000   3.179573   # C_2
 124 1 10   0.000000  17.171723  20.700400   1.972577   # O_1
 125 2 5   0.000000  12.380236  20.666849   5.368402   # H_
 126 2 7   0.000000  12.291878   0.085541   3.348585   # C_3
 127 2 5   0.000000  12.860935   0.545054   2.532414   # H_
 128 2 5   0.000000  11.434179   0.748811   3.519278   # H_
 129 2 7   0.000000  11.778224  19.403852   2.946082   # C_3
 130 2 5   0.000000  12.614069  18.696352   2.878815   # H_
 131 2 7   0.000000  11.043937  19.455842   1.606725   # C_3
 132 2 5   0.000000  11.105977  19.024653   3.726173   # H_
 133 2 5   0.000000  11.740245  19.761577   0.817063   # H_
 134 2 5   0.000000  10.246060  20.206714   1.643826   # H_
 135 2 7   0.000000  10.441498  18.107559   1.246642   # C_3
 136 2 5   0.000000  11.211563  17.330979   1.201976   # H_
 137 2 5   0.000000   9.953405  18.160017   0.268368   # H_
 138 2 5   0.000000   9.690745  17.806078   1.984098   # H_
 139 1 6   0.000000  13.529781  10.350200  17.520819   # C_2
 140 1 10   0.000000  13.878795  10.350200  18.727815   # O_1
 141 1 10   0.000000  12.322777  10.350200  17.171832   # O_1
 142 1 8   0.000000  14.593769  10.350200  16.456806   # C_R
 143 1 8   0.000000  14.166755  10.350200  15.162811   # C_R
 144 2 9   0.000000  13.050752  10.350200  14.930824   # N_3
 145 1 5   0.000000  14.930731  10.350200  13.051803   # H_
 146 1 8   0.000000  15.162743  10.350200  14.167800   # C_R
 147 1 8   0.000000  16.456748  10.350200  14.593785   # C_R
 148 1 8   0.000000  16.882763  10.350200  15.887781   # C_R
 149 1 8   0.000000  15.887774  10.350200  16.883792   # C_R
 150 1 5   0.000000  16.119787  10.350200  17.999789   # H_
 151 1 5   0.000000  17.998766  10.350200  16.119768   # H_
 152 1 10   0.000000  18.727740  10.350200  13.878760   # O_1
 153 1 6   0.000000  17.520736  10.350200  13.529773   # C_2
 154 1 10   0.000000  17.171723  10.350200  12.322777   # O_1
 155 2 5   0.000000  12.380236  10.316649  15.718602   # H_
 156 2 7   0.000000  12.291878  10.435741  13.698785   # C_3
 157 2 5   0.000000  12.860935  10.895254  12.882614   # H_
 158 2 5   0.000000  11.434179  11.099011  13.869478   # H_
 159 2 7   0.000000  11.778224   9.053652  13.296282   # C_3
 160 2 5   0.000000  12.614069   8.346152  13.229015   # H_
 161 2 7   0.000000  11.043937   9.105642  11.956925   # C_3
 162 2 5   0.000000  11.105977   8.674453  14.076373   # H_
 163 2 5   0.000000  11.740245   9.411377  11.167263   # H_
 164 2 5   0.000000  10.246060   9.856514  11.994026   # H_
 165 2 7   0.000000  10.441498   7.757359  11.596842   # C_3
 166 2 5   0.000000  11.211563   6.980779  11.552176   # H_
 167 2 5   0.000000   9.953405   7.809817  10.618568   # H_
 168 2 5   0.000000   9.690745   7.455878  12.334298   # H_
 169 1 6   0.000000  17.520819   0.000000  17.520819   # C_2
 170 1 10   0.000000  17.171805   0.000000  18.727815   # O_1
 171 1 10   0.000000  18.727823   0.000000  17.171832   # O_1
 172 1 8   0.000000  16.456831   0.000000  16.456806   # C_R
 173 1 8   0.000000  16.883845   0.000000  15.162811   # C_R
 174 2 9   0.000000  17.999848   0.000000  14.930824   # N_3
 175 1 5   0.000000  16.119869   0.000000  13.051803   # H_
 176 1 8   0.000000  15.887857   0.000000  14.167800   # C_R
 177 1 8   0.000000  14.593852   0.000000  14.593785   # C_R
 178 1 8   0.000000  14.167837   0.000000  15.887781   # C_R
 179 1 8   0.000000  15.162826   0.000000  16.883792   # C_R
 180 1 5   0.000000  14.930813   0.000000  17.999789   # H_
 181 1 5   0.000000  13.051834   0.000000  16.119768   # H_
 182 1 10   0.000000  12.322860   0.000000  13.878760   # O_1
 183 1 6   0.000000  13.529864   0.000000  13.529773   # C_2
 184 1 10   0.000000  13.878877   0.000000  12.322777   # O_1
 185 2 5   0.000000  18.670364   0.033551  15.718602   # H_
 186 2 7   0.000000  18.758722  20.614859  13.698785   # C_3
 187 2 5   0.000000  18.189665  20.155346  12.882614   # H_
 188 2 5   0.000000  19.616421  19.951589  13.869478   # H_
 189 2 7   0.000000  19.272376   1.296548  13.296282   # C_3
 190 2 5   0.000000  18.436531   2.004048  13.229015   # H_
 191 2 7   0.000000  20.006663   1.244558  11.956925   # C_3
 192 2 5   0.000000  19.944623   1.675747  14.076373   # H_
 193 2 5   0.000000  19.310355   0.938823  11.167263   # H_
 194 2 5   0.000000   0.104140   0.493686  11.994026   # H_
 195 2 7   0.000000  20.609102   2.592841  11.596842   # C_3
 196 2 5   0.000000  19.839037   3.369421  11.552176   # H_
 197 2 5   0.000000   0.396795   2.540383  10.618568   # H_
 198 2 5   0.000000   0.659455   2.894322  12.334298   # H_
 199 1 6   0.000000  17.520819  10.350200   7.170619   # C_2
 200 1 10   0.000000  17.171805  10.350200   8.377615   # O_1
 201 1 10   0.000000  18.727823  10.350200   6.821632   # O_1
 202 1 8   0.000000  16.456831  10.350200   6.106606   # C_R
 203 1 8   0.000000  16.883845  10.350200   4.812611   # C_R
 204 2 9   0.000000  17.999848  10.350200   4.580624   # N_3
 205 1 5   0.000000  16.119869  10.350200   2.701603   # H_
 206 1 8   0.000000  15.887857  10.350200   3.817600   # C_R
 207 1 8   0.000000  14.593852  10.350200   4.243585   # C_R
 208 1 8   0.000000  14.167837  10.350200   5.537581   # C_R
 209 1 8   0.000000  15.162826  10.350200   6.533592   # C_R
 210 1 5   0.000000  14.930813  10.350200   7.649589   # H_
 211 1 5   0.000000  13.051834  10.350200   5.769568   # H_
 212 1 10   0.000000  12.322860  10.350200   3.528560   # O_1
 213 1 6   0.000000  13.529864  10.350200   3.179573   # C_2
 214 1 10   0.000000  13.878877  10.350200   1.972577   # O_1
 215 2 5   0.000000  18.670364  10.383751   5.368402   # H_
 216 2 7   0.000000  18.758722  10.264659   3.348585   # C_3
 217 2 5   0.000000  18.189665   9.805146   2.532414   # H_
 218 2 5   0.000000  19.616421   9.601389   3.519278   # H_
 219 2 7   0.000000  19.272376  11.646748   2.946082   # C_3
 220 2 5   0.000000  18.436531  12.354248   2.878815   # H_
 221 2 7   0.000000  20.006663  11.594758   1.606725   # C_3
 222 2 5   0.000000  19.944623  12.025947   3.726173   # H_
 223 2 5   0.000000  19.310355  11.289023   0.817063   # H_
 224 2 5   0.000000   0.104140  10.843886   1.643826   # H_
 225 2 7   0.000000  20.609102  12.943041   1.246642   # C_3
 226 2 5   0.000000  19.839037  13.719621   1.201976   # H_
 227 2 5   0.000000   0.396795  12.890583   0.268368   # H_
 228 2 5   0.000000   0.659455  13.244522   1.984098   # H_
 229 1 6   0.000000   7.170619   0.000000   7.170619   # C_2
 230 1 10   0.000000   6.821605   0.000000   8.377615   # O_1
 231 1 10   0.000000   8.377623   0.000000   6.821632   # O_1
 232 1 8   0.000000   6.106631   0.000000   6.106606   # C_R
 233 1 8   0.000000   6.533645   0.000000   4.812611   # C_R
 234 2 9   0.000000   7.649648   0.000000   4.580624   # N_3
 235 1 5   0.000000   5.769669   0.000000   2.701603   # H_
 236 1 8   0.000000   5.537657   0.000000   3.817600   # C_R
 237 1 8   0.000000   4.243652   0.000000   4.243585   # C_R
 238 1 8   0.000000   3.817637   0.000000   5.537581   # C_R
 239 1 8   0.000000   4.812626   0.000000   6.533592   # C_R
 240 1 5   0.000000   4.580613   0.000000   7.649589   # H_
 241 1 5   0.000000   2.701634   0.000000   5.769568   # H_
 242 1 10   0.000000   1.972660   0.000000   3.528560   # O_1
 243 1 6   0.000000   3.179664   0.000000   3.179573   # C_2
 244 1 10   0.000000   3.528677   0.000000   1.972577   # O_1
 245 2 5   0.000000   8.320164   0.033551   5.368402   # H_
 246 2 7   0.000000   8.408522  20.614859   3.348585   # C_3
 247 2 5   0.000000   7.839465  20.155346   2.532414   # H_
 248 2 5   0.000000   9.266221  19.951589   3.519278   # H_
 249 2 7   0.000000   8.922176   1.296548   2.946082   # C_3
 250 2 5   0.000000   8.086331   2.004048   2.878815   # H_
 251 2 7   0.000000   9.656463   1.244558   1.606725   # C_3
 252 2 5   0.000000   9.594423   1.675747   3.726173   # H_
 253 2 5   0.000000   8.960155   0.938823   0.817063   # H_
 254 2 5   0.000000  10.454340   0.493686   1.643826   # H_
 255 2 7   0.000000  10.258902   2.592841   1.246642   # C_3
 256 2 5   0.000000   9.488837   3.369421   1.201976   # H_
 257 2 5   0.000000  10.746995   2.540383   0.268368   # H_
 258 2 5   0.000000  11.009655   2.894322   1.984098   # H_
 259 1 6   0.000000   7.170619  10.350200  17.520819   # C_2
 260 1 10   0.000000   6.821605  10.350200  18.727815   # O_1
 261 1 10   0.000000   8.377623  10.350200  17.171832   # O_1
 262 1 8   0.000000   6.106631  10.350200  16.456806   # C_R
 263 1 8   0.000000   6.533645  10.350200  15.162811   # C_R
 264 2 9   0.000000   7.649648  10.350200  14.930824   # N_3
 265 1 5   0.000000   5.769669  10.350200  13.051803   # H_
 266 1 8   0.000000   5.537657  10.350200  14.167800   # C_R
 267 1 8   0.000000   4.243652  10.350200  14.593785   # C_R
 268 1 8   0.000000   3.817637  10.350200  15.887781   # C_R
 269 1 8   0.000000   4.812626  10.350200  16.883792   # C_R
 270 1 5   0.000000   4.580613  10.350200  17.999789   # H_
 271 1 5   0.000000   2.701634  10.350200  16.119768   # H_
 272 1 10   0.000000   1.972660  10.350200  13.878760   # O_1
 273 1 6   0.000000   3.179664  10.350200  13.529773   # C_2
 274 1 10   0.000000   3.528677  10.350200  12.322777   # O_1
 275 2 5   0.000000   8.320164  10.383751  15.718602   # H_
 276 2 7   0.000000   8.408522  10.264659  13.698785   # C_3
 277 2 5   0.000000   7.839465   9.805146  12.882614   # H_
 278 2 5   0.000000   9.266221   9.601389  13.869478   # H_
 279 2 7   0.000000   8.922176  11.646748  13.296282   # C_3
 280 2 5   0.000000   8.086331  12.354248  13.229015   # H_
 281 2 7   0.000000   9.656463  11.594758  11.956925   # C_3
 282 2 5   0.000000   9.594423  12.025947  14.076373   # H_
 283 2 5   0.000000   8.960155  11.289023  11.167263   # H_
 284 2 5   0.000000  10.454340  10.843886  11.994026   # H_
 285 2 7   0.000000  10.258902  12.943041  11.596842   # C_3
 286 2 5   0.000000   9.488837  13.719621  11.552176   # H_
 287 2 5   0.000000  10.746995  12.890583  10.618568   # H_
 288 2 5   0.000000  11.009655  13.244522  12.334298   # H_
 289 1 6   0.000000  17.520819   3.179581   0.000000   # C_2
 290 1 10   0.000000  18.727815   3.528595  20.700400   # O_1
 291 1 10   0.000000  17.171832   1.972577   0.000000   # O_1
 292 1 8   0.000000  16.456806   4.243569  20.700400   # C_R
 293 1 8   0.000000  15.162811   3.816555   0.000000   # C_R
 294 2 9   0.000000  14.930824   2.700552   0.000000   # N_3
 295 1 5   0.000000  13.051803   4.580531   0.000000   # H_
 296 1 8   0.000000  14.167800   4.812543   0.000000   # C_R
 297 1 8   0.000000  14.593785   6.106548  20.700400   # C_R
 298 1 8   0.000000  15.887781   6.532563  20.700400   # C_R
 299 1 8   0.000000  16.883792   5.537574  20.700400   # C_R
 300 1 5   0.000000  17.999789   5.769587  20.700400   # H_
 301 1 5   0.000000  16.119768   7.648566  20.700400   # H_
 302 1 10   0.000000  13.878760   8.377540  20.700400   # O_1
 303 1 6   0.000000  13.529773   7.170536  20.700400   # C_2
 304 1 10   0.000000  12.322777   6.821523   0.000000   # O_1
 305 2 5   0.000000  15.718602   2.030036  20.666849   # H_
 306 2 7   0.000000  13.698785   1.941678   0.085541   # C_3
 307 2 5   0.000000  12.882614   2.510735   0.545054   # H_
 308 2 5   0.000000  13.869478   1.083979   0.748811   # H_
 309 2 7   0.000000  13.296282   1.428024  19.403852   # C_3
 310 2 5   0.000000  13.229015   2.263869  18.696352   # H_
 311 2 7   0.000000  11.956925   0.693737  19.455842   # C_3
 312 2 5   0.000000  14.076373   0.755777  19.024653   # H_
 313 2 5   0.000000  11.167263   1.390045  19.761577   # H_
 314 2 5   0.000000  11.994026  20.596260  20.206714   # H_
 315 2 7   0.000000  11.596842   0.091298  18.107559   # C_3
 316 2 5   0.000000  11.552176   0.861363  17.330979   # H_
 317 2 5   0.000000  10.618568  20.303605  18.160017   # H_
 318 2 5   0.000000  12.334298  20.040945  17.806078   # H_
 319 1 6   0.000000  17.520819  13.529781  10.350200   # C_2
 320 1 10   0.000000  18.727815  13.878795  10.350200   # O_1
 321 1 10   0.000000  17.171832  12.322777  10.350200   # O_1
 322 1 8   0.000000  16.456806  14.593769  10.350200   # C_R
 323 1 8   0.000000  15.162811  14.166755  10.350200   # C_R
 324 2 9   0.000000  14.930824  13.050752  10.350200   # N_3
 325 1 5   0.000000  13.051803  14.930731  10.350200   # H_
 326 1 8   0.000000  14.167800  15.162743  10.350200   # C_R
 327 1 8   0.000000  14.593785  16.456748  10.350200   # C_R
 328 1 8   0.000000  15.887781  16.882763  10.350200   # C_R
 329 1 8   0.000000  16.883792  15.887774  10.350200   # C_R
 330 1 5   0.000000  17.999789  16.119787  10.350200   # H_
 331 1 5   0.000000  16.119768  17.998766  10.350200   # H_
 332 1 10   0.000000  13.878760  18.727740  10.350200   # O_1
 333 1 6   0.000000  13.529773  17.520736  10.350200   # C_2
 334 1 10   0.000000  12.322777  17.171723  10.350200   # O_1
 335 2 5   0.000000  15.718602  12.380236  10.316649   # H_
 336 2 7   0.000000  13.698785  12.291878  10.435741   # C_3
 337 2 5   0.000000  12.882614  12.860935  10.895254   # H_
 338 2 5   0.000000  13.869478  11.434179  11.099011   # H_
 339 2 7   0.000000  13.296282  11.778224   9.053652   # C_3
 340 2 5   0.000000  13.229015  12.614069   8.346152   # H_
 341 2 7   0.000000  11.956925  11.043937   9.105642   # C_3
 342 2 5   0.000000  14.076373  11.105977   8.674453   # H_
 343 2 5   0.000000  11.167263  11.740245   9.411377   # H_
 344 2 5   0.000000  11.994026  10.246060   9.856514   # H_
 345 2 7   0.000000  11.596842  10.441498   7.757359   # C_3
 346 2 5   0.000000  11.552176  11.211563   6.980779   # H_
 347 2 5   0.000000  10.618568   9.953405   7.809817   # H_
 348 2 5   0.000000  12.334298   9.690745   7.455878   # H_
 349 1 6   0.000000   7.170619   3.179581  10.350200   # C_2
 350 1 10   0.000000   8.377615   3.528595  10.350200   # O_1
 351 1 10   0.000000   6.821632   1.972577  10.350200   # O_1
 352 1 8   0.000000   6.106606   4.243569  10.350200   # C_R
 353 1 8   0.000000   4.812611   3.816555  10.350200   # C_R
 354 2 9   0.000000   4.580624   2.700552  10.350200   # N_3
 355 1 5   0.000000   2.701603   4.580531  10.350200   # H_
 356 1 8   0.000000   3.817600   4.812543  10.350200   # C_R
 357 1 8   0.000000   4.243585   6.106548  10.350200   # C_R
 358 1 8   0.000000   5.537581   6.532563  10.350200   # C_R
 359 1 8   0.000000   6.533592   5.537574  10.350200   # C_R
 360 1 5   0.000000   7.649589   5.769587  10.350200   # H_
 361 1 5   0.000000   5.769568   7.648566  10.350200   # H_
 362 1 10   0.000000   3.528560   8.377540  10.350200   # O_1
 363 1 6   0.000000   3.179573   7.170536  10.350200   # C_2
 364 1 10   0.000000   1.972577   6.821523  10.350200   # O_1
 365 2 5   0.000000   5.368402   2.030036  10.316649   # H_
 366 2 7   0.000000   3.348585   1.941678  10.435741   # C_3
 367 2 5   0.000000   2.532414   2.510735  10.895254   # H_
 368 2 5   0.000000   3.519278   1.083979  11.099011   # H_
 369 2 7   0.000000   2.946082   1.428024   9.053652   # C_3
 370 2 5   0.000000   2.878815   2.263869   8.346152   # H_
 371 2 7   0.000000   1.606725   0.693737   9.105642   # C_3
 372 2 5   0.000000   3.726173   0.755777   8.674453   # H_
 373 2 5   0.000000   0.817063   1.390045   9.411377   # H_
 374 2 5   0.000000   1.643826  20.596260   9.856514   # H_
 375 2 7   0.000000   1.246642   0.091298   7.757359   # C_3
 376 2 5   0.000000   1.201976   0.861363   6.980779   # H_
 377 2 5   0.000000   0.268368  20.303605   7.809817   # H_
 378 2 5   0.000000   1.984098  20.040945   7.455878   # H_
 379 1 6   0.000000   7.170619  13.529781   0.000000   # C_2
 380 1 10   0.000000   8.377615  13.878795   0.000000   # O_1
 381 1 10   0.000000   6.821632  12.322777  20.700400   # O_1
 382 1 8   0.000000   6.106606  14.593769   0.000000   # C_R
 383 1 8   0.000000   4.812611  14.166755   0.000000   # C_R
 384 2 9   0.000000   4.580624  13.050752  20.700400   # N_3
 385 1 5   0.000000   2.701603  14.930731   0.000000   # H_
 386 1 8   0.000000   3.817600  15.162743   0.000000   # C_R
 387 1 8   0.000000   4.243585  16.456748   0.000000   # C_R
 388 1 8   0.000000   5.537581  16.882763   0.000000   # C_R
 389 1 8   0.000000   6.533592  15.887774   0.000000   # C_R
 390 1 5   0.000000   7.649589  16.119787   0.000000   # H_
 391 1 5   0.000000   5.769568  17.998766   0.000000   # H_
 392 1 10   0.000000   3.528560  18.727740   0.000000   # O_1
 393 1 6   0.000000   3.179573  17.520736   0.000000   # C_2
 394 1 10   0.000000   1.972577  17.171723   0.000000   # O_1
 395 2 5   0.000000   5.368402  12.380236  20.666849   # H_
 396 2 7   0.000000   3.348585  12.291878   0.085541   # C_3
 397 2 5   0.000000   2.532414  12.860935   0.545054   # H_
 398 2 5   0.000000   3.519278  11.434179   0.748811   # H_
 399 2 7   0.000000   2.946082  11.778224  19.403852   # C_3
 400 2 5   0.000000   2.878815  12.614069  18.696352   # H_
 401 2 7   0.000000   1.606725  11.043937  19.455842   # C_3
 402 2 5   0.000000   3.726173  11.105977  19.024653   # H_
 403 2 5   0.000000   0.817063  11.740245  19.761577   # H_
 404 2 5   0.000000   1.643826  10.246060  20.206714   # H_
 405 2 7   0.000000   1.246642  10.441498  18.107559   # C_3
 406 2 5   0.000000   1.201976  11.211563  17.330979   # H_
 407 2 5   0.000000   0.268368   9.953405  18.160017   # H_
 408 2 5   0.000000   1.984098   9.690745  17.806078   # H_
 409 1 6   0.000000  17.520819  17.520819   0.000000   # C_2
 410 1 10   0.000000  18.727815  17.171805  20.700400   # O_1
 411 1 10   0.000000  17.171832  18.727823   0.000000   # O_1
 412 1 8   0.000000  16.456806  16.456831   0.000000   # C_R
 413 1 8   0.000000  15.162811  16.883845   0.000000   # C_R
 414 2 9   0.000000  14.930824  17.999848   0.000000   # N_3
 415 1 5   0.000000  13.051803  16.119869   0.000000   # H_
 416 1 8   0.000000  14.167800  15.887857   0.000000   # C_R
 417 1 8   0.000000  14.593785  14.593852   0.000000   # C_R
 418 1 8   0.000000  15.887781  14.167837  20.700400   # C_R
 419 1 8   0.000000  16.883792  15.162826  20.700400   # C_R
 420 1 5   0.000000  17.999789  14.930813  20.700400   # H_
 421 1 5   0.000000  16.119768  13.051834  20.700400   # H_
 422 1 10   0.000000  13.878760  12.322860  20.700400   # O_1
 423 1 6   0.000000  13.529773  13.529864   0.000000   # C_2
 424 1 10   0.000000  12.322777  13.878877   0.000000   # O_1
 425 2 5   0.000000  15.718602  18.670364   0.033551   # H_
 426 2 7   0.000000  13.698785  18.758722  20.614859   # C_3
 427 2 5   0.000000  12.882614  18.189665  20.155346   # H_
 428 2 5   0.000000  13.869478  19.616421  19.951589   # H_
 429 2 7   0.000000  13.296282  19.272376   1.296548   # C_3
 430 2 5   0.000000  13.229015  18.436531   2.004048   # H_
 431 2 7   0.000000  11.956925  20.006663   1.244558   # C_3
 432 2 5   0.000000  14.076373  19.944623   1.675747   # H_
 433 2 5   0.000000  11.167263  19.310355   0.938823   # H_
 434 2 5   0.000000  11.994026   0.104140   0.493686   # H_
 435 2 7   0.000000  11.596842  20.609102   2.592841   # C_3
 436 2 5   0.000000  11.552176  19.839037   3.369421   # H_
 437 2 5   0.000000  10.618568   0.396795   2.540383   # H_
 438 2 5   0.000000  12.334298   0.659455   2.894322   # H_
 439 1 6   0.000000  17.520819   7.170619  10.350200   # C_2
 440 1 10   0.000000  18.727815   6.821605  10.350200   # O_1
 441 1 10   0.000000  17.171832   8.377623  10.350200   # O_1
 442 1 8   0.000000  16.456806   6.106631  10.350200   # C_R
 443 1 8   0.000000  15.162811   6.533645  10.350200   # C_R
 444 2 9   0.000000  14.930824   7.649648  10.350200   # N_3
 445 1 5   0.000000  13.051803   5.769669  10.350200   # H_
 446 1 8   0.000000  14.167800   5.537657  10.350200   # C_R
 447 1 8   0.000000  14.593785   4.243652  10.350200   # C_R
 448 1 8   0.000000  15.887781   3.817637  10.350200   # C_R
 449 1 8   0.000000  16.883792   4.812626  10.350200   # C_R
 450 1 5   0.000000  17.999789   4.580613  10.350200   # H_
 451 1 5   0.000000  16.119768   2.701634  10.350200   # H_
 452 1 10   0.000000  13.878760   1.972660  10.350200   # O_1
 453 1 6   0.000000  13.529773   3.179664  10.350200   # C_2
 454 1 10   0.000000  12.322777   3.528677  10.350200   # O_1
 455 2 5   0.000000  15.718602   8.320164  10.383751   # H_
 456 2 7   0.000000  13.698785   8.408522  10.264659   # C_3
 457 2 5   0.000000  12.882614   7.839465   9.805146   # H_