 (written by mofun)

992 atoms
336 bonds
648 angles
864 dihedrals
0 impropers

10 atom types
4 bond types
7 angle types
11 dihedral types
   0.000000  26.896000 xlo xhi
   0.000000  26.896000 ylo yhi
   0.000000  26.896000 zlo zhi

Masses

 1 91.2240   # Zr3+4
 2 15.9994   # O_3
 3 12.0107   # C_3
 4 1.0079   # H_
 5 1.0079   # H_
 6 12.0107   # C_2
 7 12.0107   # C_3
 8 12.0107   # C_R
 9 15.9994   # O_1
 10 15.9994   # O_3

Pair Coeffs

 1   0.069000   2.783168 # Zr3+4
 2   0.060000   3.118146 # O_3
 3   0.105000   3.430851 # C_3
 4   0.044000   2.571134 # H_
 5 0.044000 2.571134   # H_
 6 0.105000 3.430851   # C_2
 7 0.105000 3.430851   # C_3
 8 0.105000 3.430851   # C_R
 9 0.060000 3.118146   # O_1
 10 0.060000 3.118146   # O_3

Bond Coeffs

 1 572.510195 1.366311   # C_R O_3
 2 539.248552 1.393845   # C_3 O_3
 3 349.795899 1.514000   # C_3 C_3
 4 331.069389 1.109401   # C_3 H_

Angle Coeffs

 1 cosine/periodic  271.563462  -1  3   # C_R C_R O_3
 2 fourier  320.948910  0.300235  0.267331  0.266745   # C_3 O_3 C_R
 3 fourier  290.032745  0.343737  0.374972  0.281246   # C_3 C_3 O_3
 4 fourier  165.777838  0.343737  0.374972  0.281246   # H_ C_3 O_3
 5 fourier  117.318683  0.343737  0.374972  0.281246   # C_3 C_3 H_
 6 fourier  75.498766  0.343737  0.374972  0.281246   # H_ C_3 H_
 7 fourier  214.211821  0.343737  0.374972  0.281246   # C_3 C_3 C_3

Dihedral Coeffs

 1 harmonic 3.368555 -1 2   # C_R C_R C_R O_3 M=4
 2 harmonic 3.368555 -1 2   # H_ C_R C_R O_3 M=4
 3 harmonic 3.368555 -1 2   # C_2 C_R C_R O_3 M=4
 4 harmonic 2.500000 1 2   # C_3 O_3 C_R C_R M=2
 5 harmonic 0.032550 1 3   # C_3 C_3 O_3 C_R M=3
 6 harmonic 0.032550 1 3   # C_R O_3 C_3 H_ M=3
 7 harmonic 0.117722 1 3   # H_ C_3 C_3 O_3 M=9
 8 harmonic 0.117722 1 3   # C_3 C_3 C_3 O_3 M=9
 9 harmonic 0.117722 1 3   # H_ C_3 C_3 H_ M=9
 10 harmonic 0.117722 1 3   # C_3 C_3 C_3 H_ M=9
 11 harmonic 0.117722 1 3   # C_3 C_3 C_3 C_3 M=9

Atoms

 1 1 1   0.000000   2.475508   0.000000   0.000000   # Zr3+4
 2 1 1   0.000000  24.420492   0.000000   0.000000   # Zr3+4
 3 1 1   0.000000   0.000000   2.475508   0.000000   # Zr3+4
 4 1 1   0.000000   0.000000  24.420492   0.000000   # Zr3+4
 5 1 1   0.000000   0.000000   0.000000   2.475508   # Zr3+4
 6 1 1   0.000000   0.000000   0.000000  24.420492   # Zr3+4
 7 1 1   0.000000   2.475508  13.448000  13.448000   # Zr3+4
 8 1 1   0.000000  24.420492  13.448000  13.448000   # Zr3+4
 9 1 1   0.000000   0.000000  15.923508  13.448000   # Zr3+4
 10 1 1   0.000000   0.000000  10.972492  13.448000   # Zr3+4
 11 1 1   0.000000   0.000000  13.448000  15.923508   # Zr3+4
 12 1 1   0.000000   0.000000  13.448000  10.972492   # Zr3+4
 13 1 1   0.000000  15.923508   0.000000  13.448000   # Zr3+4
 14 1 1   0.000000  10.972492   0.000000  13.448000   # Zr3+4
 15 1 1   0.000000  13.448000   2.475508  13.448000   # Zr3+4
 16 1 1   0.000000  13.448000  24.420492  13.448000   # Zr3+4
 17 1 1   0.000000  13.448000   0.000000  15.923508   # Zr3+4
 18 1 1   0.000000  13.448000   0.000000  10.972492   # Zr3+4
 19 1 1   0.000000  15.923508  13.448000   0.000000   # Zr3+4
 20 1 1   0.000000  10.972492  13.448000   0.000000   # Zr3+4
 21 1 1   0.000000  13.448000  15.923508   0.000000   # Zr3+4
 22 1 1   0.000000  13.448000  10.972492   0.000000   # Zr3+4
 23 1 1   0.000000  13.448000  13.448000   2.475508   # Zr3+4
 24 1 1   0.000000  13.448000  13.448000  24.420492   # Zr3+4
 25 1 2   0.000000   1.221078   1.221078   1.221078   # O_3
 26 1 2   0.000000  25.674922  25.674922   1.221078   # O_3
 27 1 2   0.000000  25.674922   1.221078  25.674922   # O_3
 28 1 2   0.000000   1.221078  25.674922  25.674922   # O_3
 29 1 2   0.000000   1.221078   1.221078  25.674922   # O_3
 30 1 2   0.000000  25.674922  25.674922  25.674922   # O_3
 31 1 2   0.000000   1.221078  25.674922   1.221078   # O_3
 32 1 2   0.000000  25.674922   1.221078   1.221078   # O_3
 33 1 2   0.000000   1.221078  14.669078  14.669078   # O_3
 34 1 2   0.000000  25.674922  12.226922  14.669078   # O_3
 35 1 2   0.000000  25.674922  14.669078  12.226922   # O_3
 36 1 2   0.000000   1.221078  12.226922  12.226922   # O_3
 37 1 2   0.000000   1.221078  14.669078  12.226922   # O_3
 38 1 2   0.000000  25.674922  12.226922  12.226922   # O_3
 39 1 2   0.000000   1.221078  12.226922  14.669078   # O_3
 40 1 2   0.000000  25.674922  14.669078  14.669078   # O_3
 41 1 2   0.000000  14.669078   1.221078  14.669078   # O_3
 42 1 2   0.000000  12.226922  25.674922  14.669078   # O_3
 43 1 2   0.000000  12.226922   1.221078  12.226922   # O_3
 44 1 2   0.000000  14.669078  25.674922  12.226922   # O_3
 45 1 2   0.000000  14.669078   1.221078  12.226922   # O_3
 46 1 2   0.000000  12.226922  25.674922  12.226922   # O_3
 47 1 2   0.000000  14.669078  25.674922  14.669078   # O_3
 48 1 2   0.000000  12.226922   1.221078  14.669078   # O_3
 49 1 2   0.000000  14.669078  14.669078   1.221078   # O_3
 50 1 2   0.000000  12.226922  12.226922   1.221078   # O_3
 51 1 2   0.000000  12.226922  14.669078  25.674922   # O_3
 52 1 2   0.000000  14.669078  12.226922  25.674922   # O_3
 53 1 2   0.000000  14.669078  14.669078  25.674922   # O_3
 54 1 2   0.000000  12.226922  12.226922  25.674922   # O_3
 55 1 2   0.000000  14.669078  12.226922   1.221078   # O_3
 56 1 2   0.000000  12.226922  14.669078   1.221078   # O_3
 57 1 9   0.000000   3.566410   0.000000   1.933822   # O_1
 58 1 6   0.000000   3.152211   0.000000   3.152223   # C_2
 59 1 9   0.000000   1.933811  26.896000   3.566424   # O_1
 60 1 8   0.000000   4.209211   0.000000   4.209222   # C_R
 61 1 8   0.000000   5.535211   0.000000   3.891921   # C_R
 62 1 8   0.000000   3.891912   0.000000   5.535222   # C_R
 63 1 8   0.000000   6.508812   0.000000   4.827820   # C_R
 64 1 5   0.000000   5.780010  26.896000   2.996221   # H_
 65 1 8   0.000000   4.827813  26.896000   6.508821   # C_R
 66 1 5   0.000000   2.996212  26.896000   5.780023   # H_
 67 1 8   0.000000   6.204913   0.000000   6.204920   # C_R
 68 1 8   0.000000   7.243114  26.896000   7.243120   # C_R
 69 1 5   0.000000   7.399112   0.000000   4.558920   # H_
 70 1 8   0.000000   8.620213   0.000000   6.939219   # C_R
 71 1 5   0.000000   4.558914   0.000000   7.399122   # H_
 72 1 8   0.000000   6.939215   0.000000   8.620220   # C_R
 73 1 8   0.000000   9.556114   0.000000   7.912818   # C_R
 74 1 5   0.000000   8.889113  26.896000   6.048918   # H_
 75 1 8   0.000000   7.912815   0.000000   9.556119   # C_R
 76 1 5   0.000000   6.048915   0.000000   8.889121   # H_
 77 1 8   0.000000   9.238815  26.896000   9.238818   # C_R
 78 1 6   0.000000  10.295816  26.896000  10.295817   # C_2
 79 2 10   0.000000  10.888908  26.894552   7.533533   # O_3
 80 1 5   0.000000   7.668016   0.000000  10.451819   # H_
 81 1 9   0.000000  11.514216   0.000000   9.881616   # O_1
 82 1 9   0.000000   9.881617   0.000000  11.514218   # O_1
 83 2 7   0.000000  11.252179   0.003611   6.156288   # C_3
 84 2 7   0.000000  12.773565   0.002149   6.034443   # C_3
 85 2 5   0.000000  10.860683   0.905080   5.669131   # H_
 86 2 5   0.000000  10.859314  26.002233   5.662201   # H_
 87 2 5   0.000000  13.183543   0.875626   6.556327   # H_
 88 2 7   0.000000  13.198240   0.009685   4.566231   # C_3
 89 2 5   0.000000  13.181070  26.018345   6.546944   # H_
 90 2 5   0.000000  12.789671   0.895648   4.066042   # H_
 91 2 5   0.000000  12.783715  26.028301   4.055263   # H_
 92 2 7   0.000000  14.709294   0.005259   4.411604   # C_3
 93 2 5   0.000000  15.154354   0.888090   4.881111   # H_
 94 2 5   0.000000  14.979527   0.012432   3.350702   # H_
 95 2 5   0.000000  15.147818  26.008277   4.867463   # H_
 96 1 9   0.000000  23.329590   0.000000   1.933822   # O_1
 97 1 6   0.000000  23.743789   0.000000   3.152223   # C_2
 98 1 9   0.000000  24.962189   0.000000   3.566424   # O_1
 99 1 8   0.000000  22.686789   0.000000   4.209222   # C_R
 100 1 8   0.000000  21.360789  26.896000   3.891921   # C_R
 101 1 8   0.000000  23.004088   0.000000   5.535222   # C_R
 102 1 8   0.000000  20.387188  26.896000   4.827820   # C_R
 103 1 5   0.000000  21.115990  26.896000   2.996221   # H_
 104 1 8   0.000000  22.068187   0.000000   6.508821   # C_R
 105 1 5   0.000000  23.899788   0.000000   5.780023   # H_
 106 1 8   0.000000  20.691087   0.000000   6.204920   # C_R
 107 1 8   0.000000  19.652886  26.896000   7.243120   # C_R
 108 1 5   0.000000  19.496888  26.896000   4.558920   # H_
 109 1 8   0.000000  18.275787  26.896000   6.939219   # C_R
 110 1 5   0.000000  22.337086   0.000000   7.399122   # H_
 111 1 8   0.000000  19.956785   0.000000   8.620220   # C_R
 112 1 8   0.000000  17.339886  26.896000   7.912818   # C_R
 113 1 5   0.000000  18.006887  26.896000   6.048918   # H_
 114 1 8   0.000000  18.983185   0.000000   9.556119   # C_R
 115 1 5   0.000000  20.847085   0.000000   8.889121   # H_
 116 1 8   0.000000  17.657185  26.896000   9.238818   # C_R
 117 1 6   0.000000  16.600184  26.896000  10.295817   # C_2
 118 2 10   0.000000  16.007092   0.001448   7.533533   # O_3
 119 1 5   0.000000  19.227984   0.000000  10.451819   # H_
 120 1 9   0.000000  15.381784  26.896000   9.881616   # O_1
 121 1 9   0.000000  17.014383  26.896000  11.514218   # O_1
 122 2 7   0.000000  15.643821  26.892389   6.156288   # C_3
 123 2 7   0.000000  14.122435  26.893851   6.034443   # C_3
 124 2 5   0.000000  16.035317  25.990920   5.669131   # H_
 125 2 5   0.000000  16.036686   0.893767   5.662201   # H_
 126 2 5   0.000000  13.712457  26.020374   6.556327   # H_
 127 2 7   0.000000  13.697760  26.886315   4.566231   # C_3
 128 2 5   0.000000  13.714930   0.877655   6.546944   # H_
 129 2 5   0.000000  14.106329  26.000352   4.066042   # H_
 130 2 5   0.000000  14.112285   0.867699   4.055263   # H_
 131 2 7   0.000000  12.186706  26.890741   4.411604   # C_3
 132 2 5   0.000000  11.741646  26.007910   4.881111   # H_
 133 2 5   0.000000  11.916473  26.883568   3.350702   # H_
 134 2 5   0.000000  11.748182   0.887723   4.867463   # H_
 135 1 9   0.000000  23.329590   0.000000  24.962178   # O_1
 136 1 6   0.000000  23.743789   0.000000  23.743777   # C_2
 137 1 9   0.000000  24.962189   0.000000  23.329576   # O_1
 138 1 8   0.000000  22.686789   0.000000  22.686778   # C_R
 139 1 8   0.000000  21.360789  26.896000  23.004079   # C_R
 140 1 8   0.000000  23.004088   0.000000  21.360778   # C_R
 141 1 8   0.000000  20.387188  26.896000  22.068180   # C_R
 142 1 5   0.000000  21.115990  26.896000  23.899779   # H_
 143 1 8   0.000000  22.068187   0.000000  20.387179   # C_R
 144 1 5   0.000000  23.899788   0.000000  21.115977   # H_
 145 1 8   0.000000  20.691087   0.000000  20.691080   # C_R
 146 1 8   0.000000  19.652886  26.896000  19.652880   # C_R
 147 1 5   0.000000  19.496888  26.896000  22.337080   # H_
 148 1 8   0.000000  18.275787  26.896000  19.956781   # C_R
 149 1 5   0.000000  22.337086   0.000000  19.496878   # H_
 150 1 8   0.000000  19.956785   0.000000  18.275780   # C_R
 151 1 8   0.000000  17.339886  26.896000  18.983182   # C_R
 152 1 5   0.000000  18.006887  26.896000  20.847082   # H_
 153 1 8   0.000000  18.983185   0.000000  17.339881   # C_R
 154 1 5   0.000000  20.847085   0.000000  18.006879   # H_
 155 1 8   0.000000  17.657185  26.896000  17.657182   # C_R
 156 1 6   0.000000  16.600184  26.896000  16.600183   # C_2
 157 2 10   0.000000  16.007092  26.894552  19.362467   # O_3
 158 1 5   0.000000  19.227984   0.000000  16.444181   # H_
 159 1 9   0.000000  15.381784  26.896000  17.014384   # O_1
 160 1 9   0.000000  17.014383  26.896000  15.381782   # O_1
 161 2 7   0.000000  15.643821   0.003611  20.739712   # C_3
 162 2 7   0.000000  14.122435   0.002149  20.861557   # C_3
 163 2 5   0.000000  16.035317   0.905080  21.226869   # H_
 164 2 5   0.000000  16.036686  26.002233  21.233799   # H_
 165 2 5   0.000000  13.712457   0.875626  20.339673   # H_
 166 2 7   0.000000  13.697760   0.009685  22.329769   # C_3
 167 2 5   0.000000  13.714930  26.018345  20.349056   # H_
 168 2 5   0.000000  14.106329   0.895648  22.829958   # H_
 169 2 5   0.000000  14.112285  26.028301  22.840737   # H_
 170 2 7   0.000000  12.186706   0.005259  22.484396   # C_3
 171 2 5   0.000000  11.741646   0.888090  22.014889   # H_
 172 2 5   0.000000  11.916473   0.012432  23.545298   # H_
 173 2 5   0.000000  11.748182  26.008277  22.028537   # H_
 174 1 9   0.000000   3.566410   0.000000  24.962178   # O_1
 175 1 6   0.000000   3.152211   0.000000  23.743777   # C_2
 176 1 9   0.000000   1.933811   0.000000  23.329576   # O_1
 177 1 8   0.000000   4.209211   0.000000  22.686778   # C_R
 178 1 8   0.000000   5.535211   0.000000  23.004079   # C_R
 179 1 8   0.000000   3.891912   0.000000  21.360778   # C_R
 180 1 8   0.000000   6.508812   0.000000  22.068180   # C_R
 181 1 5   0.000000   5.780010   0.000000  23.899779   # H_
 182 1 8   0.000000   4.827813   0.000000  20.387179   # C_R
 183 1 5   0.000000   2.996212   0.000000  21.115977   # H_
 184 1 8   0.000000   6.204913   0.000000  20.691080   # C_R
 185 1 8   0.000000   7.243114   0.000000  19.652880   # C_R
 186 1 5   0.000000   7.399112   0.000000  22.337080   # H_
 187 1 8   0.000000   8.620213   0.000000  19.956781   # C_R
 188 1 5   0.000000   4.558914   0.000000  19.496878   # H_
 189 1 8   0.000000   6.939215   0.000000  18.275780   # C_R
 190 1 8   0.000000   9.556114   0.000000  18.983182   # C_R
 191 1 5   0.000000   8.889113   0.000000  20.847082   # H_
 192 1 8   0.000000   7.912815   0.000000  17.339881   # C_R
 193 1 5   0.000000   6.048915   0.000000  18.006879   # H_
 194 1 8   0.000000   9.238815   0.000000  17.657182   # C_R
 195 1 6   0.000000  10.295816   0.000000  16.600183   # C_2
 196 2 10   0.000000  10.888908   0.001448  19.362467   # O_3
 197 1 5   0.000000   7.668016   0.000000  16.444181   # H_
 198 1 9   0.000000  11.514216   0.000000  17.014384   # O_1
 199 1 9   0.000000   9.881617   0.000000  15.381782   # O_1
 200 2 7   0.000000  11.252179  26.892389  20.739712   # C_3
 201 2 7   0.000000  12.773565  26.893851  20.861557   # C_3
 202 2 5   0.000000  10.860683  25.990920  21.226869   # H_
 203 2 5   0.000000  10.859314   0.893767  21.233799   # H_
 204 2 5   0.000000  13.183543  26.020374  20.339673   # H_
 205 2 7   0.000000  13.198240  26.886315  22.329769   # C_3
 206 2 5   0.000000  13.181070   0.877655  20.349056   # H_
 207 2 5   0.000000  12.789671  26.000352  22.829958   # H_
 208 2 5   0.000000  12.783715   0.867699  22.840737   # H_
 209 2 7   0.000000  14.709294  26.890741  22.484396   # C_3
 210 2 5   0.000000  15.154354  26.007910  22.014889   # H_
 211 2 5   0.000000  14.979527  26.883568  23.545298   # H_
 212 2 5   0.000000  15.147818   0.887723  22.028537   # H_
 213 1 9   0.000000   1.933822   3.566410   0.000000   # O_1
 214 1 6   0.000000   3.152223   3.152211   0.000000   # C_2
 215 1 9   0.000000   3.566424   1.933811   0.000000   # O_1
 216 1 8   0.000000   4.209222   4.209211   0.000000   # C_R
 217 1 8   0.000000   3.891921   5.535211  26.896000   # C_R
 218 1 8   0.000000   5.535222   3.891912   0.000000   # C_R
 219 1 8   0.000000   4.827820   6.508812  26.896000   # C_R
 220 1 5   0.000000   2.996221   5.780010  26.896000   # H_
 221 1 8   0.000000   6.508821   4.827813   0.000000   # C_R
 222 1 5   0.000000   5.780023   2.996212   0.000000   # H_
 223 1 8   0.000000   6.204920   6.204913   0.000000   # C_R
 224 1 8   0.000000   7.243120   7.243114  26.896000   # C_R
 225 1 5   0.000000   4.558920   7.399112  26.896000   # H_
 226 1 8   0.000000   6.939219   8.620213  26.896000   # C_R
 227 1 5   0.000000   7.399122   4.558914   0.000000   # H_
 228 1 8   0.000000   8.620220   6.939215   0.000000   # C_R
 229 1 8   0.000000   7.912818   9.556114  26.896000   # C_R
 230 1 5   0.000000   6.048918   8.889113  26.896000   # H_
 231 1 8   0.000000   9.556119   7.912815   0.000000   # C_R
 232 1 5   0.000000   8.889121   6.048915   0.000000   # H_
 233 1 8   0.000000   9.238818   9.238815  26.896000   # C_R
 234 1 6   0.000000  10.295817  10.295816  26.896000   # C_2
 235 2 10   0.000000   7.533533  10.888908  26.894552   # O_3
 236 1 5   0.000000  10.451819   7.668016   0.000000   # H_
 237 1 9   0.000000   9.881616  11.514216  26.896000   # O_1
 238 1 9   0.000000  11.514218   9.881617  26.896000   # O_1
 239 2 7   0.000000   6.156288  11.252179   0.003611   # C_3
 240 2 7   0.000000   6.034443  12.773565   0.002149   # C_3
 241 2 5   0.000000   5.669131  10.860683   0.905080   # H_
 242 2 5   0.000000   5.662201  10.859314  26.002233   # H_
 243 2 5   0.000000   6.556327  13.183543   0.875626   # H_
 244 2 7   0.000000   4.566231  13.198240   0.009685   # C_3
 245 2 5   0.000000   6.546944  13.181070  26.018345   # H_
 246 2 5   0.000000   4.066042  12.789671   0.895648   # H_
 247 2 5   0.000000   4.055263  12.783715  26.028301   # H_
 248 2 7   0.000000   4.411604  14.709294   0.005259   # C_3
 249 2 5   0.000000   4.881111  15.154354   0.888090   # H_
 250 2 5   0.000000   3.350702  14.979527   0.012432   # H_
 251 2 5   0.000000   4.867463  15.147818  26.008277   # H_
 252 1 9   0.000000   1.933822  23.329590   0.000000   # O_1
 253 1 6   0.000000   3.152223  23.743789   0.000000   # C_2
 254 1 9   0.000000   3.566424  24.962189   0.000000   # O_1
 255 1 8   0.000000   4.209222  22.686789   0.000000   # C_R
 256 1 8   0.000000   3.891921  21.360789   0.000000   # C_R
 257 1 8   0.000000   5.535222  23.004088   0.000000   # C_R
 258 1 8   0.000000   4.827820  20.387188   0.000000   # C_R
 259 1 5   0.000000   2.996221  21.115990   0.000000   # H_
 260 1 8   0.000000   6.508821  22.068187   0.000000   # C_R
 261 1 5   0.000000   5.780023  23.899788   0.000000   # H_
 262 1 8   0.000000   6.204920  20.691087   0.000000   # C_R
 263 1 8   0.000000   7.243120  19.652886   0.000000   # C_R
 264 1 5   0.000000   4.558920  19.496888   0.000000   # H_
 265 1 8   0.000000   6.939219  18.275787   0.000000   # C_R
 266 1 5   0.000000   7.399122  22.337086   0.000000   # H_
 267 1 8   0.000000   8.620220  19.956785   0.000000   # C_R
 268 1 8   0.000000   7.912818  17.339886   0.000000   # C_R
 269 1 5   0.000000   6.048918  18.006887   0.000000   # H_
 270 1 8   0.000000   9.556119  18.983185   0.000000   # C_R
 271 1 5   0.000000   8.889121  20.847085   0.000000   # H_
 272 1 8   0.000000   9.238818  17.657185   0.000000   # C_R
 273 1 6   0.000000  10.295817  16.600184   0.000000   # C_2
 274 2 10   0.000000   7.533533  16.007092   0.001448   # O_3
 275 1 5   0.000000  10.451819  19.227984   0.000000   # H_
 276 1 9   0.000000   9.881616  15.381784   0.000000   # O_1
 277 1 9   0.000000  11.514218  17.014383   0.000000   # O_1
 278 2 7   0.000000   6.156288  15.643821  26.892389   # C_3
 279 2 7   0.000000   6.034443  14.122435  26.893851   # C_3
 280 2 5   0.000000   5.669131  16.035317  25.990920   # H_
 281 2 5   0.000000   5.662201  16.036686   0.893767   # H_
 282 2 5   0.000000   6.556327  13.712457  26.020374   # H_
 283 2 7   0.000000   4.566231  13.697760  26.886315   # C_3
 284 2 5   0.000000   6.546944  13.714930   0.877655   # H_
 285 2 5   0.000000   4.066042  14.106329  26.000352   # H_
 286 2 5   0.000000   4.055263  14.112285   0.867699   # H_
 287 2 7   0.000000   4.411604  12.186706  26.890741   # C_3
 288 2 5   0.000000   4.881111  11.741646  26.007910   # H_
 289 2 5   0.000000   3.350702  11.916473  26.883568   # H_
 290 2 5   0.000000   4.867463  11.748182   0.887723   # H_
 291 1 9   0.000000  24.962178  23.329590   0.000000   # O_1
 292 1 6   0.000000  23.743777  23.743789   0.000000   # C_2
 293 1 9   0.000000  23.329576  24.962189   0.000000   # O_1
 294 1 8   0.000000  22.686778  22.686789   0.000000   # C_R
 295 1 8   0.000000  23.004079  21.360789  26.896000   # C_R
 296 1 8   0.000000  21.360778  23.004088   0.000000   # C_R
 297 1 8   0.000000  22.068180  20.387188  26.896000   # C_R
 298 1 5   0.000000  23.899779  21.115990  26.896000   # H_
 299 1 8   0.000000  20.387179  22.068187   0.000000   # C_R
 300 1 5   0.000000  21.115977  23.899788   0.000000   # H_
 301 1 8   0.000000  20.691080  20.691087   0.000000   # C_R
 302 1 8   0.000000  19.652880  19.652886  26.896000   # C_R
 303 1 5   0.000000  22.337080  19.496888  26.896000   # H_
 304 1 8   0.000000  19.956781  18.275787  26.896000   # C_R
 305 1 5   0.000000  19.496878  22.337086   0.000000   # H_
 306 1 8   0.000000  18.275780  19.956785   0.000000   # C_R
 307 1 8   0.000000  18.983182  17.339886  26.896000   # C_R
 308 1 5   0.000000  20.847082  18.006887  26.896000   # H_
 309 1 8   0.000000  17.339881  18.983185   0.000000   # C_R
 310 1 5   0.000000  18.006879  20.847085   0.000000   # H_
 311 1 8   0.000000  17.657182  17.657185  26.896000   # C_R
 312 1 6   0.000000  16.600183  16.600184  26.896000   # C_2
 313 2 10   0.000000  19.362467  16.007092  26.894552   # O_3
 314 1 5   0.000000  16.444181  19.227984   0.000000   # H_
 315 1 9   0.000000  17.014384  15.381784  26.896000   # O_1
 316 1 9   0.000000  15.381782  17.014383   0.000000   # O_1
 317 2 7   0.000000  20.739712  15.643821   0.003611   # C_3
 318 2 7   0.000000  20.861557  14.122435   0.002149   # C_3
 319 2 5   0.000000  21.226869  16.035317   0.905080   # H_
 320 2 5   0.000000  21.233799  16.036686  26.002233   # H_
 321 2 5   0.000000  20.339673  13.712457   0.875626   # H_
 322 2 7   0.000000  22.329769  13.697760   0.009685   # C_3
 323 2 5   0.000000  20.349056  13.714930  26.018345   # H_
 324 2 5   0.000000  22.829958  14.106329   0.895648   # H_
 325 2 5   0.000000  22.840737  14.112285  26.028301   # H_
 326 2 7   0.000000  22.484396  12.186706   0.005259   # C_3
 327 2 5   0.000000  22.014889  11.741646   0.888090   # H_
 328 2 5   0.000000  23.545298  11.916473   0.012432   # H_
 329 2 5   0.000000  22.028537  11.748182  26.008277   # H_
 330 1 9   0.000000  24.962178   3.566410   0.000000   # O_1
 331 1 6   0.000000  23.743777   3.152211   0.000000   # C_2
 332 1 9   0.000000  23.329576   1.933811   0.000000   # O_1
 333 1 8   0.000000  22.686778   4.209211   0.000000   # C_R
 334 1 8   0.000000  23.004079   5.535211   0.000000   # C_R
 335 1 8   0.000000  21.360778   3.891912   0.000000   # C_R
 336 1 8   0.000000  22.068180   6.508812   0.000000   # C_R
 337 1 5   0.000000  23.899779   5.780010   0.000000   # H_
 338 1 8   0.000000  20.387179   4.827813   0.000000   # C_R
 339 1 5   0.000000  21.115977   2.996212   0.000000   # H_
 340 1 8   0.000000  20.691080   6.204913   0.000000   # C_R
 341 1 8   0.000000  19.652880   7.243114   0.000000   # C_R
 342 1 5   0.000000  22.337080   7.399112   0.000000   # H_
 343 1 8   0.000000  19.956781   8.620213   0.000000   # C_R
 344 1 5   0.000000  19.496878   4.558914   0.000000   # H_
 345 1 8   0.000000  18.275780   6.939215   0.000000   # C_R
 346 1 8   0.000000  18.983182   9.556114   0.000000   # C_R
 347 1 5   0.000000  20.847082   8.889113   0.000000   # H_
 348 1 8   0.000000  17.339881   7.912815   0.000000   # C_R
 349 1 5   0.000000  18.006879   6.048915   0.000000   # H_
 350 1 8   0.000000  17.657182   9.238815   0.000000   # C_R
 351 1 6   0.000000  16.600183  10.295816   0.000000   # C_2
 352 2 10   0.000000  19.362467  10.888908   0.001448   # O_3
 353 1 5   0.000000  16.444181   7.668016   0.000000   # H_
 354 1 9   0.000000  17.014384  11.514216   0.000000   # O_1
 355 1 9   0.000000  15.381782   9.881617   0.000000   # O_1
 356 2 7   0.000000  20.739712  11.252179  26.892389   # C_3
 357 2 7   0.000000  20.861557  12.773565  26.893851   # C_3
 358 2 5   0.000000  21.226869  10.860683  25.990920   # H_
 359 2 5   0.000000  21.233799  10.859314   0.893767   # H_
 360 2 5   0.000000  20.339673  13.183543  26.020374   # H_
 361 2 7   0.000000  22.329769  13.198240  26.886315   # C_3
 362 2 5   0.000000  20.349056  13.181070   0.877655   # H_
 363 2 5   0.000000  22.829958  12.789671  26.000352   # H_
 364 2 5   0.000000  22.840737  12.783715   0.867699   # H_
 365 2 7   0.000000  22.484396  14.709294  26.890741   # C_3
 366 2 5   0.000000  22.014889  15.154354  26.007910   # H_
 367 2 5   0.000000  23.545298  14.979527  26.883568   # H_
 368 2 5   0.000000  22.028537  15.147818   0.887723   # H_
 369 1 9   0.000000   0.000000   1.933822   3.566410   # O_1
 370 1 6   0.000000   0.000000   3.152223   3.152211   # C_2
 371 1 9   0.000000   0.000000   3.566424   1.933811   # O_1
 372 1 8   0.000000   0.000000   4.209222   4.209211   # C_R
 373 1 8   0.000000   0.000000   3.891921   5.535211   # C_R
 374 1 8   0.000000   0.000000   5.535222   3.891912   # C_R
 375 1 8   0.000000   0.000000   4.827820   6.508812   # C_R
 376 1 5   0.000000   0.000000   2.996221   5.780010   # H_
 377 1 8   0.000000   0.000000   6.508821   4.827813   # C_R
 378 1 5   0.000000   0.000000   5.780023   2.996212   # H_
 379 1 8   0.000000   0.000000   6.204920   6.204913   # C_R
 380 1 8   0.000000   0.000000   7.243120   7.243114   # C_R
 381 1 5   0.000000   0.000000   4.558920   7.399112   # H_
 382 1 8   0.000000   0.000000   6.939219   8.620213   # C_R
 383 1 5   0.000000   0.000000   7.399122   4.558914   # H_
 384 1 8   0.000000   0.000000   8.620220   6.939215   # C_R
 385 1 8   0.000000   0.000000   7.912818   9.556114   # C_R
 386 1 5   0.000000   0.000000   6.048918   8.889113   # H_
 387 1 8   0.000000   0.000000   9.556119   7.912815   # C_R
 388 1 5   0.000000   0.000000   8.889121   6.048915   # H_
 389 1 8   0.000000   0.000000   9.238818   9.238815   # C_R
 390 1 6   0.000000   0.000000  10.295817  10.295816   # C_2
 391 2 10   0.000000  26.894552   7.533533  10.888908   # O_3
 392 1 5   0.000000   0.000000  10.451819   7.668016   # H_
 393 1 9   0.000000   0.000000   9.881616  11.514216   # O_1
 394 1 9   0.000000   0.000000  11.514218   9.881617   # O_1
 395 2 7   0.000000   0.003611   6.156288  11.252179   # C_3
 396 2 7   0.000000   0.002149   6.034443  12.773565   # C_3
 397 2 5   0.000000   0.905080   5.669131  10.860683   # H_
 398 2 5   0.000000  26.002233   5.662201  10.859314   # H_
 399 2 5   0.000000   0.875626   6.556327  13.183543   # H_
 400 2 7   0.000000   0.009685   4.566231  13.198240   # C_3
 401 2 5   0.000000  26.018345   6.546944  13.181070   # H_
 402 2 5   0.000000   0.895648   4.066042  12.789671   # H_
 403 2 5   0.000000  26.028301   4.055263  12.783715   # H_
 404 2 7   0.000000   0.005259   4.411604  14.709294   # C_3
 405 2 5   0.000000   0.888090   4.881111  15.154354   # H_
 406 2 5   0.000000   0.012432   3.350702  14.979527   # H_
 407 2 5   0.000000  26.008277   4.867463  15.147818   # H_
 408 1 9   0.000000   0.000000   1.933822  23.329590   # O_1
 409 1 6   0.000000   0.000000   3.152223  23.743789   # C_2
 410 1 9   0.000000   0.000000   3.566424  24.962189   # O_1
 411 1 8   0.000000   0.000000   4.209222  22.686789   # C_R
 412 1 8   0.000000   0.000000   3.891921  21.360789   # C_R
 413 1 8   0.000000   0.000000   5.535222  23.004088   # C_R
 414 1 8   0.000000   0.000000   4.827820  20.387188   # C_R
 415 1 5   0.000000   0.000000   2.996221  21.115990   # H_
 416 1 8   0.000000   0.000000   6.508821  22.068187   # C_R
 417 1 5   0.000000   0.000000   5.780023  23.899788   # H_
 418 1 8   0.000000   0.000000   6.204920  20.691087   # C_R
 419 1 8   0.000000   0.000000   7.243120  19.652886   # C_R
 420 1 5   0.000000   0.000000   4.558920  19.496888   # H_
 421 1 8   0.000000   0.000000   6.939219  18.275787   # C_R
 422 1 5   0.000000   0.000000   7.399122  22.337086   # H_
 423 1 8   0.000000   0.000000   8.620220  19.956785   # C_R
 424 1 8   0.000000   0.000000   7.912818  17.339886   # C_R
 425 1 5   0.000000   0.000000   6.048918  18.006887   # H_
 426 1 8   0.000000   0.000000   9.556119  18.983185   # C_R
 427 1 5   0.000000   0.000000   8.889121  20.847085   # H_
 428 1 8   0.000000   0.000000   9.238818  17.657185   # C_R
 429 1 6   0.000000   0.000000  10.295817  16.600184   # C_2
 430 2 10   0.000000   0.001448   7.533533  16.007092   # O_3
 431 1 5   0.000000   0.000000  10.451819  19.227984   # H_
 432 1 9   0.000000   0.000000   9.881616  15.381784   # O_1
 433 1 9   0.000000   0.000000  11.514218  17.014383   # O_1
 434 2 7   0.000000  26.892389   6.156288  15.643821   # C_3
 435 2 7   0.000000  26.893851   6.034443  14.122435   # C_3
 436 2 5   0.000000  25.990920   5.669131  16.035317   # H_
 437 2 5   0.000000   0.893767   5.662201  16.036686   # H_
 438 2 5   0.000000  26.020374   6.556327  13.712457   # H_
 439 2 7   0.000000  26.886315   4.566231  13.697760   # C_3
 440 2 5   0.000000   0.877655   6.546944  13.714930   # H_
 441 2 5   0.000000  26.000352   4.066042  14.106329   # H_
 442 2 5   0.000000   0.867699   4.055263  14.112285   # H_
 443 2 7   0.000000  26.890741   4.411604  12.186706   # C_3
 444 2 5   0.000000  26.007910   4.881111  11.741646   # H_
 445 2 5   0.000000  26.883568   3.350702  11.916473   # H_
 446 2 5   0.000000   0.887723   4.867463  11.748182   # H_
 447 1 9   0.000000   0.000000  24.962178  23.329590   # O_1
 448 1 6   0.000000   0.000000  23.743777  23.743789   # C_2
 449 1 9   0.000000   0.000000  23.329576  24.962189   # O_1
 450 1 8   0.000000   0.000000  22.686778  22.686789   # C_R
 451 1 8   0.000000  26.896000  23.004079  21.360789   # C_R
 452 1 8   0.000000   0.000000  21.360778  23.004088   # C_R
 453 1 8   0.000000  26.896000  22.068180  20.387188   # C_R
 454 1 5   0.000000  26.896000  23.899779  21.115990   # H_
 455 1 8   0.000000   0.000000  20.387179  22.068187   # C_R
 456 1 5   0.000000   0.000000  21.115977  23.899788   # H_
 457 1 8   0.000000   0.000000  20.691080  20.691087   # C_R
 458 1 8   0.000000  26.896000  19.652880  19.652886   # C_R
 459 1 5   0.000000  26.896000  22.337080  19.496888   # H_
 460 1 8   0.000000  26.896000  19.956781  18.275787   # C_R
 461 1 5   0.000000   0.000000  19.496878  22.337086   # H_
 462 1 8   0.000000   0.000000  18.275780  19.956785   # C_R
 463 1 8   0.000000  26.896000  18.983182  17.339886   # C_R