 (written by mofun)

816 atoms
408 bonds
792 angles
1080 dihedrals
0 impropers

10 atom types
4 bond types
7 angle types
11 dihedral types
   0.000000  20.700400 xlo xhi
   0.000000  20.700400 ylo yhi
   0.000000  20.700400 zlo zhi

Masses

 1 91.2240   # Zr3+4
 2 15.9994   # O_3
 3 12.0107   # C_3
 4 1.0079   # H_
 5 1.0079   # H_
 6 12.0107   # C_2
 7 12.0107   # C_3
 8 12.0107   # C_R
 9 15.9994   # O_1
 10 15.9994   # O_3

Pair Coeffs

 1   0.069000   2.783168 # Zr3+4
 2   0.060000   3.118146 # O_3
 3   0.105000   3.430851 # C_3
 4   0.044000   2.571134 # H_
 5 0.044000 2.571134   # H_
 6 0.105000 3.430851   # C_2
 7 0.105000 3.430851   # C_3
 8 0.105000 3.430851   # C_R
 9 0.060000 3.118146   # O_1
 10 0.060000 3.118146   # O_3

Bond Coeffs

 1 572.510195 1.366311   # C_R O_3
 2 539.248552 1.393845   # C_3 O_3
 3 349.795899 1.514000   # C_3 C_3
 4 331.069389 1.109401   # C_3 H_

Angle Coeffs

 1 cosine/periodic  271.563462  -1  3   # C_R C_R O_3
 2 fourier  320.948910  0.300235  0.267331  0.266745   # C_3 O_3 C_R
 3 fourier  290.032745  0.343737  0.374972  0.281246   # C_3 C_3 O_3
 4 fourier  165.777838  0.343737  0.374972  0.281246   # H_ C_3 O_3
 5 fourier  117.318683  0.343737  0.374972  0.281246   # C_3 C_3 H_
 6 fourier  75.498766  0.343737  0.374972  0.281246   # H_ C_3 H_
 7 fourier  214.211821  0.343737  0.374972  0.281246   # C_3 C_3 C_3

Dihedral Coeffs

 1 harmonic 3.368555 -1 2   # C_R C_R C_R O_3 M=4
 2 harmonic 3.368555 -1 2   # H_ C_R C_R O_3 M=4
 3 harmonic 3.368555 -1 2   # C_2 C_R C_R O_3 M=4
 4 harmonic 2.500000 1 2   # C_3 O_3 C_R C_R M=2
 5 harmonic 0.032550 1 3   # C_3 C_3 O_3 C_R M=3
 6 harmonic 0.032550 1 3   # C_R O_3 C_3 H_ M=3
 7 harmonic 0.117722 1 3   # H_ C_3 C_3 O_3 M=9
 8 harmonic 0.117722 1 3   # C_3 C_3 C_3 O_3 M=9
 9 harmonic 0.117722 1 3   # H_ C_3 C_3 H_ M=9
 10 harmonic 0.117722 1 3   # C_3 C_3 C_3 H_ M=9
 11 harmonic 0.117722 1 3   # C_3 C_3 C_3 C_3 M=9

Atoms

 1 1 1   0.000000   2.481771   0.000000   0.000000   # Zr3+4
 2 1 1   0.000000   2.481771  10.350200  10.350200   # Zr3+4
 3 1 1   0.000000  12.831971   0.000000  10.350200   # Zr3+4
 4 1 1   0.000000  12.831971  10.350200   0.000000   # Zr3+4
 5 1 1   0.000000  18.218629   0.000000   0.000000   # Zr3+4
 6 1 1   0.000000  18.218629  10.350200  10.350200   # Zr3+4
 7 1 1   0.000000   7.868429   0.000000  10.350200   # Zr3+4
 8 1 1   0.000000   7.868429  10.350200   0.000000   # Zr3+4
 9 1 1   0.000000   0.000000   2.481771   0.000000   # Zr3+4
 10 1 1   0.000000   0.000000  12.831971  10.350200   # Zr3+4
 11 1 1   0.000000  10.350200   2.481771  10.350200   # Zr3+4
 12 1 1   0.000000  10.350200  12.831971   0.000000   # Zr3+4
 13 1 1   0.000000   0.000000  18.218629   0.000000   # Zr3+4
 14 1 1   0.000000   0.000000   7.868429  10.350200   # Zr3+4
 15 1 1   0.000000  10.350200  18.218629  10.350200   # Zr3+4
 16 1 1   0.000000  10.350200   7.868429   0.000000   # Zr3+4
 17 1 1   0.000000   0.000000   0.000000   2.481771   # Zr3+4
 18 1 1   0.000000   0.000000  10.350200  12.831971   # Zr3+4
 19 1 1   0.000000  10.350200   0.000000  12.831971   # Zr3+4
 20 1 1   0.000000  10.350200  10.350200   2.481771   # Zr3+4
 21 1 1   0.000000   0.000000   0.000000  18.218629   # Zr3+4
 22 1 1   0.000000   0.000000  10.350200   7.868429   # Zr3+4
 23 1 1   0.000000  10.350200   0.000000   7.868429   # Zr3+4
 24 1 1   0.000000  10.350200  10.350200  18.218629   # Zr3+4
 25 1 2   0.000000   1.161292   9.188908   9.188908   # O_3
 26 1 2   0.000000  11.511492  19.539108   9.188908   # O_3
 27 1 2   0.000000  11.511492   9.188908  19.539108   # O_3
 28 1 2   0.000000   9.188908   1.161292   9.188908   # O_3
 29 1 2   0.000000   9.188908  11.511492  19.539108   # O_3
 30 1 2   0.000000  19.539108  19.539108   1.161292   # O_3
 31 1 2   0.000000  19.539108   9.188908  11.511492   # O_3
 32 1 2   0.000000   1.161292   1.161292   1.161292   # O_3
 33 1 2   0.000000  11.511492  11.511492   1.161292   # O_3
 34 1 2   0.000000  19.539108   1.161292   1.161292   # O_3
 35 1 2   0.000000  19.539108  11.511492  11.511492   # O_3
 36 1 2   0.000000   9.188908   1.161292  11.511492   # O_3
 37 1 2   0.000000   9.188908  11.511492   1.161292   # O_3
 38 1 2   0.000000   1.161292  19.539108   1.161292   # O_3
 39 1 2   0.000000   1.161292   9.188908  11.511492   # O_3
 40 1 2   0.000000  11.511492  19.539108  11.511492   # O_3
 41 1 2   0.000000  11.511492   9.188908   1.161292   # O_3
 42 1 2   0.000000  19.539108  19.539108  19.539108   # O_3
 43 1 2   0.000000  19.539108   9.188908   9.188908   # O_3
 44 1 2   0.000000   9.188908  19.539108   9.188908   # O_3
 45 1 2   0.000000   9.188908   9.188908  19.539108   # O_3
 46 1 2   0.000000   1.161292   1.161292  19.539108   # O_3
 47 1 2   0.000000   1.161292  11.511492   9.188908   # O_3
 48 1 2   0.000000  11.511492   1.161292   9.188908   # O_3
 49 1 6   0.000000   3.179581   0.000000  17.520819   # C_2
 50 1 9   0.000000   3.528595   0.000000  18.727815   # O_1
 51 1 9   0.000000   1.972577  20.700400  17.171832   # O_1
 52 1 8   0.000000   4.243569   0.000000  16.456806   # C_R
 53 1 8   0.000000   3.816555  20.700400  15.162811   # C_R
 54 1 5   0.000000   2.700552  20.700400  14.930824   # H_
 55 2 10   0.000000   4.383228  20.371183  12.903898   # O_3
 56 1 8   0.000000   4.812543  20.700400  14.167800   # C_R
 57 1 8   0.000000   6.106548   0.000000  14.593785   # C_R
 58 1 8   0.000000   6.532563   0.000000  15.887781   # C_R
 59 1 8   0.000000   5.537574   0.000000  16.883792   # C_R
 60 1 5   0.000000   5.769587   0.000000  17.999789   # H_
 61 1 5   0.000000   7.648566   0.000000  16.119768   # H_
 62 1 9   0.000000   8.377540   0.000000  13.878760   # O_1
 63 1 6   0.000000   7.170536   0.000000  13.529773   # C_2
 64 1 9   0.000000   6.821523  20.700400  12.322777   # O_1
 65 2 7   0.000000   4.043534  18.967003  12.822196   # C_3
 66 2 7   0.000000   5.234784  18.005429  12.977129   # C_3
 67 2 5   0.000000   3.249452  18.731076  13.541837   # H_
 68 2 5   0.000000   3.600584  18.814368  11.831275   # H_
 69 2 5   0.000000   5.846229  18.034925  12.066710   # H_
 70 2 7   0.000000   4.816235  16.565766  13.278955   # C_3
 71 2 5   0.000000   5.889774  18.335495  13.778595   # H_
 72 2 5   0.000000   4.003074  16.551464  14.014637   # H_
 73 2 5   0.000000   4.428728  16.106989  12.362372   # H_
 74 2 7   0.000000   5.980842  15.718774  13.813069   # C_3
 75 2 5   0.000000   6.842452  15.792988  13.139258   # H_
 76 2 7   0.000000   6.409643  16.100088  15.227444   # C_3
 77 2 5   0.000000   5.671470  14.667305  13.823414   # H_
 78 2 5   0.000000   7.166862  15.399504  15.594247   # H_
 79 2 5   0.000000   5.560504  16.070896  15.918004   # H_
 80 2 5   0.000000   6.848544  17.101239  15.267828   # H_
 81 1 6   0.000000   3.179581  10.350200   7.170619   # C_2
 82 1 9   0.000000   3.528595  10.350200   8.377615   # O_1
 83 1 9   0.000000   1.972577  10.350200   6.821632   # O_1
 84 1 8   0.000000   4.243569  10.350200   6.106606   # C_R
 85 1 8   0.000000   3.816555  10.350200   4.812611   # C_R
 86 1 5   0.000000   2.700552  10.350200   4.580624   # H_
 87 2 10   0.000000   4.383228  10.020983   2.553698   # O_3
 88 1 8   0.000000   4.812543  10.350200   3.817600   # C_R
 89 1 8   0.000000   6.106548  10.350200   4.243585   # C_R
 90 1 8   0.000000   6.532563  10.350200   5.537581   # C_R
 91 1 8   0.000000   5.537574  10.350200   6.533592   # C_R
 92 1 5   0.000000   5.769587  10.350200   7.649589   # H_
 93 1 5   0.000000   7.648566  10.350200   5.769568   # H_
 94 1 9   0.000000   8.377540  10.350200   3.528560   # O_1
 95 1 6   0.000000   7.170536  10.350200   3.179573   # C_2
 96 1 9   0.000000   6.821523  10.350200   1.972577   # O_1
 97 2 7   0.000000   4.043534   8.616803   2.471996   # C_3
 98 2 7   0.000000   5.234784   7.655229   2.626929   # C_3
 99 2 5   0.000000   3.249452   8.380876   3.191637   # H_
 100 2 5   0.000000   3.600584   8.464168   1.481075   # H_
 101 2 5   0.000000   5.846229   7.684725   1.716510   # H_
 102 2 7   0.000000   4.816235   6.215566   2.928755   # C_3
 103 2 5   0.000000   5.889774   7.985295   3.428395   # H_
 104 2 5   0.000000   4.003074   6.201264   3.664437   # H_
 105 2 5   0.000000   4.428728   5.756789   2.012172   # H_
 106 2 7   0.000000   5.980842   5.368574   3.462869   # C_3
 107 2 5   0.000000   6.842452   5.442788   2.789058   # H_
 108 2 7   0.000000   6.409643   5.749888   4.877244   # C_3
 109 2 5   0.000000   5.671470   4.317105   3.473214   # H_
 110 2 5   0.000000   7.166862   5.049304   5.244047   # H_
 111 2 5   0.000000   5.560504   5.720696   5.567804   # H_
 112 2 5   0.000000   6.848544   6.751039   4.917628   # H_
 113 1 6   0.000000  13.529781   0.000000   7.170619   # C_2
 114 1 9   0.000000  13.878795   0.000000   8.377615   # O_1
 115 1 9   0.000000  12.322777  20.700400   6.821632   # O_1
 116 1 8   0.000000  14.593769   0.000000   6.106606   # C_R
 117 1 8   0.000000  14.166755  20.700400   4.812611   # C_R
 118 1 5   0.000000  13.050752  20.700400   4.580624   # H_
 119 2 10   0.000000  14.733428  20.371183   2.553698   # O_3
 120 1 8   0.000000  15.162743  20.700400   3.817600   # C_R
 121 1 8   0.000000  16.456748   0.000000   4.243585   # C_R
 122 1 8   0.000000  16.882763   0.000000   5.537581   # C_R
 123 1 8   0.000000  15.887774   0.000000   6.533592   # C_R
 124 1 5   0.000000  16.119787   0.000000   7.649589   # H_
 125 1 5   0.000000  17.998766   0.000000   5.769568   # H_
 126 1 9   0.000000  18.727740   0.000000   3.528560   # O_1
 127 1 6   0.000000  17.520736   0.000000   3.179573   # C_2
 128 1 9   0.000000  17.171723  20.700400   1.972577   # O_1
 129 2 7   0.000000  14.393734  18.967003   2.471996   # C_3
 130 2 7   0.000000  15.584984  18.005429   2.626929   # C_3
 131 2 5   0.000000  13.599652  18.731076   3.191637   # H_
 132 2 5   0.000000  13.950784  18.814368   1.481075   # H_
 133 2 5   0.000000  16.196429  18.034925   1.716510   # H_
 134 2 7   0.000000  15.166435  16.565766   2.928755   # C_3
 135 2 5   0.000000  16.239974  18.335495   3.428395   # H_
 136 2 5   0.000000  14.353274  16.551464   3.664437   # H_
 137 2 5   0.000000  14.778928  16.106989   2.012172   # H_
 138 2 7   0.000000  16.331042  15.718774   3.462869   # C_3
 139 2 5   0.000000  17.192652  15.792988   2.789058   # H_
 140 2 7   0.000000  16.759843  16.100088   4.877244   # C_3
 141 2 5   0.000000  16.021670  14.667305   3.473214   # H_
 142 2 5   0.000000  17.517062  15.399504   5.244047   # H_
 143 2 5   0.000000  15.910704  16.070896   5.567804   # H_
 144 2 5   0.000000  17.198744  17.101239   4.917628   # H_
 145 1 6   0.000000  13.529781  10.350200  17.520819   # C_2
 146 1 9   0.000000  13.878795  10.350200  18.727815   # O_1
 147 1 9   0.000000  12.322777  10.350200  17.171832   # O_1
 148 1 8   0.000000  14.593769  10.350200  16.456806   # C_R
 149 1 8   0.000000  14.166755  10.350200  15.162811   # C_R
 150 1 5   0.000000  13.050752  10.350200  14.930824   # H_
 151 2 10   0.000000  14.733428  10.020983  12.903898   # O_3
 152 1 8   0.000000  15.162743  10.350200  14.167800   # C_R
 153 1 8   0.000000  16.456748  10.350200  14.593785   # C_R
 154 1 8   0.000000  16.882763  10.350200  15.887781   # C_R
 155 1 8   0.000000  15.887774  10.350200  16.883792   # C_R
 156 1 5   0.000000  16.119787  10.350200  17.999789   # H_
 157 1 5   0.000000  17.998766  10.350200  16.119768   # H_
 158 1 9   0.000000  18.727740  10.350200  13.878760   # O_1
 159 1 6   0.000000  17.520736  10.350200  13.529773   # C_2
 160 1 9   0.000000  17.171723  10.350200  12.322777   # O_1
 161 2 7   0.000000  14.393734   8.616803  12.822196   # C_3
 162 2 7   0.000000  15.584984   7.655229  12.977129   # C_3
 163 2 5   0.000000  13.599652   8.380876  13.541837   # H_
 164 2 5   0.000000  13.950784   8.464168  11.831275   # H_
 165 2 5   0.000000  16.196429   7.684725  12.066710   # H_
 166 2 7   0.000000  15.166435   6.215566  13.278955   # C_3
 167 2 5   0.000000  16.239974   7.985295  13.778595   # H_
 168 2 5   0.000000  14.353274   6.201264  14.014637   # H_
 169 2 5   0.000000  14.778928   5.756789  12.362372   # H_
 170 2 7   0.000000  16.331042   5.368574  13.813069   # C_3
 171 2 5   0.000000  17.192652   5.442788  13.139258   # H_
 172 2 7   0.000000  16.759843   5.749888  15.227444   # C_3
 173 2 5   0.000000  16.021670   4.317105  13.823414   # H_
 174 2 5   0.000000  17.517062   5.049304  15.594247   # H_
 175 2 5   0.000000  15.910704   5.720696  15.918004   # H_
 176 2 5   0.000000  17.198744   6.751039  15.267828   # H_
 177 1 6   0.000000  17.520819   0.000000  17.520819   # C_2
 178 1 9   0.000000  17.171805   0.000000  18.727815   # O_1
 179 1 9   0.000000  18.727823   0.000000  17.171832   # O_1
 180 1 8   0.000000  16.456831   0.000000  16.456806   # C_R
 181 1 8   0.000000  16.883845   0.000000  15.162811   # C_R
 182 1 5   0.000000  17.999848   0.000000  14.930824   # H_
 183 2 10   0.000000  16.317172   0.329217  12.903898   # O_3
 184 1 8   0.000000  15.887857   0.000000  14.167800   # C_R
 185 1 8   0.000000  14.593852   0.000000  14.593785   # C_R
 186 1 8   0.000000  14.167837   0.000000  15.887781   # C_R
 187 1 8   0.000000  15.162826   0.000000  16.883792   # C_R
 188 1 5   0.000000  14.930813   0.000000  17.999789   # H_
 189 1 5   0.000000  13.051834   0.000000  16.119768   # H_
 190 1 9   0.000000  12.322860   0.000000  13.878760   # O_1
 191 1 6   0.000000  13.529864   0.000000  13.529773   # C_2
 192 1 9   0.000000  13.878877   0.000000  12.322777   # O_1
 193 2 7   0.000000  16.656866   1.733397  12.822196   # C_3
 194 2 7   0.000000  15.465616   2.694971  12.977129   # C_3
 195 2 5   0.000000  17.450948   1.969324  13.541837   # H_
 196 2 5   0.000000  17.099816   1.886032  11.831275   # H_
 197 2 5   0.000000  14.854171   2.665475  12.066710   # H_
 198 2 7   0.000000  15.884165   4.134634  13.278955   # C_3
 199 2 5   0.000000  14.810626   2.364905  13.778595   # H_
 200 2 5   0.000000  16.697326   4.148936  14.014637   # H_
 201 2 5   0.000000  16.271672   4.593411  12.362372   # H_
 202 2 7   0.000000  14.719558   4.981626  13.813069   # C_3
 203 2 5   0.000000  13.857948   4.907412  13.139258   # H_
 204 2 7   0.000000  14.290757   4.600312  15.227444   # C_3
 205 2 5   0.000000  15.028930   6.033095  13.823414   # H_
 206 2 5   0.000000  13.533538   5.300896  15.594247   # H_
 207 2 5   0.000000  15.139896   4.629504  15.918004   # H_
 208 2 5   0.000000  13.851856   3.599161  15.267828   # H_
 209 1 6   0.000000  17.520819  10.350200   7.170619   # C_2
 210 1 9   0.000000  17.171805  10.350200   8.377615   # O_1
 211 1 9   0.000000  18.727823  10.350200   6.821632   # O_1
 212 1 8   0.000000  16.456831  10.350200   6.106606   # C_R
 213 1 8   0.000000  16.883845  10.350200   4.812611   # C_R
 214 1 5   0.000000  17.999848  10.350200   4.580624   # H_
 215 2 10   0.000000  16.317172  10.679417   2.553698   # O_3
 216 1 8   0.000000  15.887857  10.350200   3.817600   # C_R
 217 1 8   0.000000  14.593852  10.350200   4.243585   # C_R
 218 1 8   0.000000  14.167837  10.350200   5.537581   # C_R
 219 1 8   0.000000  15.162826  10.350200   6.533592   # C_R
 220 1 5   0.000000  14.930813  10.350200   7.649589   # H_
 221 1 5   0.000000  13.051834  10.350200   5.769568   # H_
 222 1 9   0.000000  12.322860  10.350200   3.528560   # O_1
 223 1 6   0.000000  13.529864  10.350200   3.179573   # C_2
 224 1 9   0.000000  13.878877  10.350200   1.972577   # O_1
 225 2 7   0.000000  16.656866  12.083597   2.471996   # C_3
 226 2 7   0.000000  15.465616  13.045171   2.626929   # C_3
 227 2 5   0.000000  17.450948  12.319524   3.191637   # H_
 228 2 5   0.000000  17.099816  12.236232   1.481075   # H_
 229 2 5   0.000000  14.854171  13.015675   1.716510   # H_
 230 2 7   0.000000  15.884165  14.484834   2.928755   # C_3
 231 2 5   0.000000  14.810626  12.715105   3.428395   # H_
 232 2 5   0.000000  16.697326  14.499136   3.664437   # H_
 233 2 5   0.000000  16.271672  14.943611   2.012172   # H_
 234 2 7   0.000000  14.719558  15.331826   3.462869   # C_3
 235 2 5   0.000000  13.857948  15.257612   2.789058   # H_
 236 2 7   0.000000  14.290757  14.950512   4.877244   # C_3
 237 2 5   0.000000  15.028931  16.383295   3.473214   # H_
 238 2 5   0.000000  13.533538  15.651096   5.244047   # H_
 239 2 5   0.000000  15.139896  14.979704   5.567804   # H_
 240 2 5   0.000000  13.851856  13.949361   4.917628   # H_
 241 1 6   0.000000   7.170619   0.000000   7.170619   # C_2
 242 1 9   0.000000   6.821605   0.000000   8.377615   # O_1
 243 1 9   0.000000   8.377623   0.000000   6.821632   # O_1
 244 1 8   0.000000   6.106631   0.000000   6.106606   # C_R
 245 1 8   0.000000   6.533645   0.000000   4.812611   # C_R
 246 1 5   0.000000   7.649648   0.000000   4.580624   # H_
 247 2 10   0.000000   5.966972   0.329217   2.553698   # O_3
 248 1 8   0.000000   5.537657   0.000000   3.817600   # C_R
 249 1 8   0.000000   4.243652   0.000000   4.243585   # C_R
 250 1 8   0.000000   3.817637   0.000000   5.537581   # C_R
 251 1 8   0.000000   4.812626   0.000000   6.533592   # C_R
 252 1 5   0.000000   4.580613   0.000000   7.649589   # H_
 253 1 5   0.000000   2.701634   0.000000   5.769568   # H_
 254 1 9   0.000000   1.972660   0.000000   3.528560   # O_1
 255 1 6   0.000000   3.179664   0.000000   3.179573   # C_2
 256 1 9   0.000000   3.528677   0.000000   1.972577   # O_1
 257 2 7   0.000000   6.306666   1.733397   2.471996   # C_3
 258 2 7   0.000000   5.115416   2.694971   2.626929   # C_3
 259 2 5   0.000000   7.100748   1.969324   3.191637   # H_
 260 2 5   0.000000   6.749616   1.886032   1.481075   # H_
 261 2 5   0.000000   4.503971   2.665475   1.716510   # H_
 262 2 7   0.000000   5.533965   4.134634   2.928755   # C_3
 263 2 5   0.000000   4.460426   2.364905   3.428395   # H_
 264 2 5   0.000000   6.347126   4.148936   3.664437   # H_
 265 2 5   0.000000   5.921472   4.593411   2.012172   # H_
 266 2 7   0.000000   4.369358   4.981626   3.462869   # C_3
 267 2 5   0.000000   3.507748   4.907412   2.789058   # H_
 268 2 7   0.000000   3.940557   4.600312   4.877244   # C_3
 269 2 5   0.000000   4.678730   6.033095   3.473214   # H_
 270 2 5   0.000000   3.183338   5.300896   5.244047   # H_
 271 2 5   0.000000   4.789696   4.629504   5.567804   # H_
 272 2 5   0.000000   3.501656   3.599161   4.917628   # H_
 273 1 6   0.000000   7.170619  10.350200  17.520819   # C_2
 274 1 9   0.000000   6.821605  10.350200  18.727815   # O_1
 275 1 9   0.000000   8.377623  10.350200  17.171832   # O_1
 276 1 8   0.000000   6.106631  10.350200  16.456806   # C_R
 277 1 8   0.000000   6.533645  10.350200  15.162811   # C_R
 278 1 5   0.000000   7.649648  10.350200  14.930824   # H_
 279 2 10   0.000000   5.966972  10.679417  12.903898   # O_3
 280 1 8   0.000000   5.537657  10.350200  14.167800   # C_R
 281 1 8   0.000000   4.243652  10.350200  14.593785   # C_R
 282 1 8   0.000000   3.817637  10.350200  15.887781   # C_R
 283 1 8   0.000000   4.812626  10.350200  16.883792   # C_R
 284 1 5   0.000000   4.580613  10.350200  17.999789   # H_
 285 1 5   0.000000   2.701634  10.350200  16.119768   # H_
 286 1 9   0.000000   1.972660  10.350200  13.878760   # O_1
 287 1 6   0.000000   3.179664  10.350200  13.529773   # C_2
 288 1 9   0.000000   3.528677  10.350200  12.322777   # O_1
 289 2 7   0.000000   6.306666  12.083597  12.822196   # C_3
 290 2 7   0.000000   5.115416  13.045171  12.977129   # C_3
 291 2 5   0.000000   7.100748  12.319524  13.541837   # H_
 292 2 5   0.000000   6.749616  12.236232  11.831275   # H_
 293 2 5   0.000000   4.503971  13.015675  12.066710   # H_
 294 2 7   0.000000   5.533965  14.484834  13.278955   # C_3
 295 2 5   0.000000   4.460426  12.715105  13.778595   # H_
 296 2 5   0.000000   6.347126  14.499136  14.014637   # H_
 297 2 5   0.000000   5.921472  14.943611  12.362372   # H_
 298 2 7   0.000000   4.369358  15.331826  13.813069   # C_3
 299 2 5   0.000000   3.507748  15.257612  13.139258   # H_
 300 2 7   0.000000   3.940557  14.950512  15.227444   # C_3
 301 2 5   0.000000   4.678730  16.383295  13.823414   # H_
 302 2 5   0.000000   3.183338  15.651096  15.594247   # H_
 303 2 5   0.000000   4.789696  14.979704  15.918004   # H_
 304 2 5   0.000000   3.501656  13.949361  15.267828   # H_
 305 1 6   0.000000  17.520819   3.179581   0.000000   # C_2
 306 1 9   0.000000  18.727815   3.528595  20.700400   # O_1
 307 1 9   0.000000  17.171832   1.972577   0.000000   # O_1
 308 1 8   0.000000  16.456806   4.243569  20.700400   # C_R
 309 1 8   0.000000  15.162811   3.816555   0.000000   # C_R
 310 1 5   0.000000  14.930824   2.700552   0.000000   # H_
 311 2 10   0.000000  12.903898   4.383228  20.371183   # O_3
 312 1 8   0.000000  14.167800   4.812543   0.000000   # C_R
 313 1 8   0.000000  14.593785   6.106548  20.700400   # C_R
 314 1 8   0.000000  15.887781   6.532563  20.700400   # C_R
 315 1 8   0.000000  16.883792   5.537574  20.700400   # C_R
 316 1 5   0.000000  17.999789   5.769587  20.700400   # H_
 317 1 5   0.000000  16.119768   7.648566  20.700400   # H_
 318 1 9   0.000000  13.878760   8.377540  20.700400   # O_1
 319 1 6   0.000000  13.529773   7.170536  20.700400   # C_2
 320 1 9   0.000000  12.322777   6.821523   0.000000   # O_1
 321 2 7   0.000000  12.822196   4.043534  18.967003   # C_3
 322 2 7   0.000000  12.977129   5.234784  18.005429   # C_3
 323 2 5   0.000000  13.541837   3.249452  18.731076   # H_
 324 2 5   0.000000  11.831275   3.600584  18.814368   # H_
 325 2 5   0.000000  12.066710   5.846229  18.034925   # H_
 326 2 7   0.000000  13.278955   4.816235  16.565766   # C_3
 327 2 5   0.000000  13.778595   5.889774  18.335495   # H_
 328 2 5   0.000000  14.014637   4.003074  16.551464   # H_
 329 2 5   0.000000  12.362372   4.428728  16.106989   # H_
 330 2 7   0.000000  13.813069   5.980842  15.718774   # C_3
 331 2 5   0.000000  13.139258   6.842452  15.792988   # H_
 332 2 7   0.000000  15.227444   6.409643  16.100088   # C_3
 333 2 5   0.000000  13.823414   5.671470  14.667305   # H_
 334 2 5   0.000000  15.594247   7.166862  15.399504   # H_
 335 2 5   0.000000  15.918004   5.560504  16.070896   # H_
 336 2 5   0.000000  15.267828   6.848544  17.101239   # H_
 337 1 6   0.000000  17.520819  13.529781  10.350200   # C_2
 338 1 9   0.000000  18.727815  13.878795  10.350200   # O_1
 339 1 9   0.000000  17.171832  12.322777  10.350200   # O_1
 340 1 8   0.000000  16.456806  14.593769  10.350200   # C_R
 341 1 8   0.000000  15.162811  14.166755  10.350200   # C_R
 342 1 5   0.000000  14.930824  13.050752  10.350200   # H_
 343 2 10   0.000000  12.903898  14.733428  10.020983   # O_3
 344 1 8   0.000000  14.167800  15.162743  10.350200   # C_R
 345 1 8   0.000000  14.593785  16.456748  10.350200   # C_R
 346 1 8   0.000000  15.887781  16.882763  10.350200   # C_R
 347 1 8   0.000000  16.883792  15.887774  10.350200   # C_R
 348 1 5   0.000000  17.999789  16.119787  10.350200   # H_
 349 1 5   0.000000  16.119768  17.998766  10.350200   # H_
 350 1 9   0.000000  13.878760  18.727740  10.350200   # O_1
 351 1 6   0.000000  13.529773  17.520736  10.350200   # C_2
 352 1 9   0.000000  12.322777  17.171723  10.350200   # O_1
 353 2 7   0.000000  12.822196  14.393734   8.616803   # C_3
 354 2 7   0.000000  12.977129  15.584984   7.655229   # C_3
 355 2 5   0.000000  13.541837  13.599652   8.380876   # H_
 356 2 5   0.000000  11.831275  13.950784   8.464168   # H_
 357 2 5   0.000000  12.066710  16.196429   7.684725   # H_
 358 2 7   0.000000  13.278955  15.166435   6.215566   # C_3
 359 2 5   0.000000  13.778595  16.239974   7.985295   # H_
 360 2 5   0.000000  14.014637  14.353274   6.201264   # H_
 361 2 5   0.000000  12.362372  14.778928   5.756789   # H_
 362 2 7   0.000000  13.813069  16.331042   5.368574   # C_3
 363 2 5   0.000000  13.139258  17.192652   5.442788   # H_
 364 2 7   0.000000  15.227444  16.759843   5.749888   # C_3
 365 2 5   0.000000  13.823414  16.021670   4.317105   # H_
 366 2 5   0.000000  15.594247  17.517062   5.049304   # H_
 367 2 5   0.000000  15.918004  15.910704   5.720696   # H_
 368 2 5   0.000000  15.267828  17.198744   6.751039   # H_
 369 1 6   0.000000   7.170619   3.179581  10.350200   # C_2
 370 1 9   0.000000   8.377615   3.528595  10.350200   # O_1
 371 1 9   0.000000   6.821632   1.972577  10.350200   # O_1
 372 1 8   0.000000   6.106606   4.243569  10.350200   # C_R
 373 1 8   0.000000   4.812611   3.816555  10.350200   # C_R
 374 1 5   0.000000   4.580624   2.700552  10.350200   # H_
 375 2 10   0.000000   2.553698   4.383228  10.020983   # O_3
 376 1 8   0.000000   3.817600   4.812543  10.350200   # C_R
 377 1 8   0.000000   4.243585   6.106548  10.350200   # C_R
 378 1 8   0.000000   5.537581   6.532563  10.350200   # C_R
 379 1 8   0.000000   6.533592   5.537574  10.350200   # C_R
 380 1 5   0.000000   7.649589   5.769587  10.350200   # H_
 381 1 5   0.000000   5.769568   7.648566  10.350200   # H_
 382 1 9   0.000000   3.528560   8.377540  10.350200   # O_1
 383 1 6   0.000000   3.179573   7.170536  10.350200   # C_2
 384 1 9   0.000000   1.972577   6.821523  10.350200   # O_1
 385 2 7   0.000000   2.471996   4.043534   8.616803   # C_3
 386 2 7   0.000000   2.626929   5.234784   7.655229   # C_3
 387 2 5   0.000000   3.191637   3.249452   8.380876   # H_
 388 2 5   0.000000   1.481075   3.600584   8.464168   # H_
 389 2 5   0.000000   1.716510   5.846229   7.684725   # H_
 390 2 7   0.000000   2.928755   4.816235   6.215566   # C_3
 391 2 5   0.000000   3.428395   5.889774   7.985295   # H_
 392 2 5   0.000000   3.664437   4.003074   6.201264   # H_
 393 2 5   0.000000   2.012172   4.428728   5.756789   # H_
 394 2 7   0.000000   3.462869   5.980842   5.368574   # C_3
 395 2 5   0.000000   2.789058   6.842452   5.442788   # H_
 396 2 7   0.000000   4.877244   6.409643   5.749888   # C_3
 397 2 5   0.000000   3.473214   5.671470   4.317105   # H_
 398 2 5   0.000000   5.244047   7.166862   5.049304   # H_
 399 2 5   0.000000   5.567804   5.560504   5.720696   # H_
 400 2 5   0.000000   4.917628   6.848544   6.751039   # H_
 401 1 6   0.000000   7.170619  13.529781   0.000000   # C_2
 402 1 9   0.000000   8.377615  13.878795   0.000000   # O_1
 403 1 9   0.000000   6.821632  12.322777  20.700400   # O_1
 404 1 8   0.000000   6.106606  14.593769   0.000000   # C_R
 405 1 8   0.000000   4.812611  14.166755   0.000000   # C_R
 406 1 5   0.000000   4.580624  13.050752  20.700400   # H_
 407 2 10   0.000000   2.553698  14.733428  20.371183   # O_3
 408 1 8   0.000000   3.817600  15.162743   0.000000   # C_R
 409 1 8   0.000000   4.243585  16.456748   0.000000   # C_R
 410 1 8   0.000000   5.537581  16.882763   0.000000   # C_R
 411 1 8   0.000000   6.533592  15.887774   0.000000   # C_R
 412 1 5   0.000000   7.649589  16.119787   0.000000   # H_
 413 1 5   0.000000   5.769568  17.998766   0.000000   # H_
 414 1 9   0.000000   3.528560  18.727740   0.000000   # O_1
 415 1 6   0.000000   3.179573  17.520736   0.000000   # C_2
 416 1 9   0.000000   1.972577  17.171723   0.000000   # O_1
 417 2 7   0.000000   2.471996  14.393734  18.967003   # C_3
 418 2 7   0.000000   2.626929  15.584984  18.005429   # C_3
 419 2 5   0.000000   3.191637  13.599652  18.731076   # H_
 420 2 5   0.000000   1.481075  13.950784  18.814368   # H_
 421 2 5   0.000000   1.716510  16.196429  18.034925   # H_
 422 2 7   0.000000   2.928755  15.166435  16.565766   # C_3
 423 2 5   0.000000   3.428395  16.239974  18.335495   # H_
 424 2 5   0.000000   3.664437  14.353274  16.551464   # H_
 425 2 5   0.000000   2.012172  14.778928  16.106989   # H_
 426 2 7   0.000000   3.462869  16.331042  15.718774   # C_3
 427 2 5   0.000000   2.789058  17.192652  15.792988   # H_
 428 2 7   0.000000   4.877244  16.759843  16.100088   # C_3
 429 2 5   0.000000   3.473214  16.021670  14.667305   # H_
 430 2 5   0.000000   5.244047  17.517062  15.399504   # H_
 431 2 5   0.000000   5.567804  15.910704  16.070896   # H_
 432 2 5   0.000000   4.917628  17.198744  17.101239   # H_
 433 1 6   0.000000  17.520819  17.520819   0.000000   # C_2
 434 1 9   0.000000  18.727815  17.171805  20.700400   # O_1
 435 1 9   0.000000  17.171832  18.727823   0.000000   # O_1
 436 1 8   0.000000  16.456806  16.456831   0.000000   # C_R
 437 1 8   0.000000  15.162811  16.883845   0.000000   # C_R
 438 1 5   0.000000  14.930824  17.999848   0.000000   # H_
 439 2 10   0.000000  12.903898  16.317172   0.329217   # O_3
 440 1 8   0.000000  14.167800  15.887857   0.000000   # C_R
 441 1 8   0.000000  14.593785  14.593852   0.000000   # C_R
 442 1 8   0.000000  15.887781  14.167837  20.700400   # C_R
 443 1 8   0.000000  16.883792  15.162826  20.700400   # C_R
 444 1 5   0.000000  17.999789  14.930813  20.700400   # H_
 445 1 5   0.000000  16.119768  13.051834  20.700400   # H_
 446 1 9   0.000000  13.878760  12.322860  20.700400   # O_1
 447 1 6   0.000000  13.529773  13.529864   0.000000   # C_2
 448 1 9   0.000000  12.322777  13.878877   0.000000   # O_1
 449 2 7   0.000000  12.822196  16.656866   1.733397   # C_3
 450 2 7   0.000000  12.977129  15.465616   2.694971   # C_3
 451 2 5   0.000000  13.541837  17.450948   1.969324   # H_
 452 2 5   0.000000  11.831275  17.099816   1.886032   # H_
 453 2 5   0.000000  12.066710  14.854171   2.665475   # H_
 454 2 7   0.000000  13.278955  15.884165   4.134634   # C_3
 455 2 5   0.000000  13.778595  14.810626   2.364905   # H_
 456 2 5   0.000000  14.014637  16.697326   4.148936   # H_
 457 2 5   0.000000  12.362372  16.271672   4.593411   # H_
 458 2 7   0.000000  13.813069  14.719558   4.981626   # C_3
 459 2 5   0.000000  13.139258  13.857948   4.907412   # H_
 460 2 7   0.000000  15.227444  14.290757   4.600312   # C_3
 461 2 5   0.000000  13.823414  15.028930   6.033095   # H_
 462 2 5   0.000000  15.594247  13.533538   5.300896   # H_
 463 2 5   0.000000  15.918004  15.139896   4.629504   # H_