 (written by mofun)

1248 atoms
864 bonds
1680 angles
2400 dihedrals
0 impropers

10 atom types
5 bond types
9 angle types
11 dihedral types
   0.000000  20.700400 xlo xhi
   0.000000  20.700400 ylo yhi
   0.000000  20.700400 zlo zhi

Masses

 1 91.2240   # Zr3+4
 2 15.9994   # O_3
 3 12.0107   # C_3
 4 1.0079   # H_
 5 1.0079   # H_
 6 12.0107   # C_2
 7 12.0107   # C_3
 8 12.0107   # C_R
 9 14.0067   # N_3
 10 15.9994   # O_1

Pair Coeffs

 1   0.069000   2.783168 # Zr3+4
 2   0.060000   3.118146 # O_3
 3   0.105000   3.430851 # C_3
 4   0.044000   2.571134 # H_
 5 0.044000 2.571134   # H_
 6 0.105000 3.430851   # C_2
 7 0.105000 3.430851   # C_3
 8 0.105000 3.430851   # C_R
 9 0.069000 3.260689   # N_3
 10 0.060000 3.118146   # O_1

Bond Coeffs

 1 560.312976 1.423192   # C_R N_3
 2 528.634538 1.451071   # C_3 N_3
 3 349.795899 1.514000   # C_3 C_3
 4 331.069389 1.109401   # C_3 H_
 5 527.945261 1.044419   # H_ N_3

Angle Coeffs

 1 cosine/periodic  282.369526  -1  3   # C_R C_R N_3
 2 fourier  268.482172  0.317506  0.313225  0.272502   # C_3 N_3 C_R
 3 fourier  150.574599  0.317506  0.313225  0.272502   # C_R N_3 H_
 4 fourier  144.695053  0.317506  0.313225  0.272502   # C_3 N_3 H_
 5 fourier  303.297032  0.343737  0.374972  0.281246   # C_3 C_3 N_3
 6 fourier  169.780468  0.343737  0.374972  0.281246   # H_ C_3 N_3
 7 fourier  117.318683  0.343737  0.374972  0.281246   # C_3 C_3 H_
 8 fourier  75.498766  0.343737  0.374972  0.281246   # H_ C_3 H_
 9 fourier  214.211821  0.343737  0.374972  0.281246   # C_3 C_3 C_3

Dihedral Coeffs

 1 harmonic 0.125000 -1 6   # C_3 N_3 C_R C_R M=4
 2 harmonic 0.125000 -1 6   # C_R C_R N_3 H_ M=4
 3 harmonic 3.368555 -1 2   # C_2 C_R C_R N_3 M=4
 4 harmonic 3.368555 -1 2   # C_R C_R C_R N_3 M=4
 5 harmonic 3.368555 -1 2   # H_ C_R C_R N_3 M=4
 6 harmonic 0.081375 1 3   # C_3 C_3 N_3 C_R M=6
 7 harmonic 0.081375 1 3   # C_R N_3 C_3 H_ M=6
 8 harmonic 0.081375 1 3   # C_3 C_3 N_3 H_ M=6
 9 harmonic 0.081375 1 3   # H_ C_3 N_3 H_ M=6
 10 harmonic 0.117722 1 3   # C_3 C_3 C_3 N_3 M=9
 11 harmonic 0.117722 1 3   # C_3 C_3 C_3 H_ M=9

Atoms

 1 1 1   0.000000   2.481771   0.000000   0.000000   # Zr3+4
 2 1 1   0.000000   2.481771  10.350200  10.350200   # Zr3+4
 3 1 1   0.000000  12.831971   0.000000  10.350200   # Zr3+4
 4 1 1   0.000000  12.831971  10.350200   0.000000   # Zr3+4
 5 1 1   0.000000  18.218629   0.000000   0.000000   # Zr3+4
 6 1 1   0.000000  18.218629  10.350200  10.350200   # Zr3+4
 7 1 1   0.000000   7.868429   0.000000  10.350200   # Zr3+4
 8 1 1   0.000000   7.868429  10.350200   0.000000   # Zr3+4
 9 1 1   0.000000   0.000000   2.481771   0.000000   # Zr3+4
 10 1 1   0.000000   0.000000  12.831971  10.350200   # Zr3+4
 11 1 1   0.000000  10.350200   2.481771  10.350200   # Zr3+4
 12 1 1   0.000000  10.350200  12.831971   0.000000   # Zr3+4
 13 1 1   0.000000   0.000000  18.218629   0.000000   # Zr3+4
 14 1 1   0.000000   0.000000   7.868429  10.350200   # Zr3+4
 15 1 1   0.000000  10.350200  18.218629  10.350200   # Zr3+4
 16 1 1   0.000000  10.350200   7.868429   0.000000   # Zr3+4
 17 1 1   0.000000   0.000000   0.000000   2.481771   # Zr3+4
 18 1 1   0.000000   0.000000  10.350200  12.831971   # Zr3+4
 19 1 1   0.000000  10.350200   0.000000  12.831971   # Zr3+4
 20 1 1   0.000000  10.350200  10.350200   2.481771   # Zr3+4
 21 1 1   0.000000   0.000000   0.000000  18.218629   # Zr3+4
 22 1 1   0.000000   0.000000  10.350200   7.868429   # Zr3+4
 23 1 1   0.000000  10.350200   0.000000   7.868429   # Zr3+4
 24 1 1   0.000000  10.350200  10.350200  18.218629   # Zr3+4
 25 1 2   0.000000   1.161292   9.188908   9.188908   # O_3
 26 1 2   0.000000  11.511492  19.539108   9.188908   # O_3
 27 1 2   0.000000  11.511492   9.188908  19.539108   # O_3
 28 1 2   0.000000   9.188908   1.161292   9.188908   # O_3
 29 1 2   0.000000   9.188908  11.511492  19.539108   # O_3
 30 1 2   0.000000  19.539108  19.539108   1.161292   # O_3
 31 1 2   0.000000  19.539108   9.188908  11.511492   # O_3
 32 1 2   0.000000   1.161292   1.161292   1.161292   # O_3
 33 1 2   0.000000  11.511492  11.511492   1.161292   # O_3
 34 1 2   0.000000  19.539108   1.161292   1.161292   # O_3
 35 1 2   0.000000  19.539108  11.511492  11.511492   # O_3
 36 1 2   0.000000   9.188908   1.161292  11.511492   # O_3
 37 1 2   0.000000   9.188908  11.511492   1.161292   # O_3
 38 1 2   0.000000   1.161292  19.539108   1.161292   # O_3
 39 1 2   0.000000   1.161292   9.188908  11.511492   # O_3
 40 1 2   0.000000  11.511492  19.539108  11.511492   # O_3
 41 1 2   0.000000  11.511492   9.188908   1.161292   # O_3
 42 1 2   0.000000  19.539108  19.539108  19.539108   # O_3
 43 1 2   0.000000  19.539108   9.188908   9.188908   # O_3
 44 1 2   0.000000   9.188908  19.539108   9.188908   # O_3
 45 1 2   0.000000   9.188908   9.188908  19.539108   # O_3
 46 1 2   0.000000   1.161292   1.161292  19.539108   # O_3
 47 1 2   0.000000   1.161292  11.511492   9.188908   # O_3
 48 1 2   0.000000  11.511492   1.161292   9.188908   # O_3
 49 1 6   0.000000   3.179581   0.000000  17.520819   # C_2
 50 1 10   0.000000   3.528595   0.000000  18.727815   # O_1
 51 1 10   0.000000   1.972577  20.700400  17.171832   # O_1
 52 1 8   0.000000   4.243569   0.000000  16.456806   # C_R
 53 1 8   0.000000   3.816555  20.700400  15.162811   # C_R
 54 1 5   0.000000   2.700552  20.700400  14.930824   # H_
 55 2 9   0.000000   4.229193  20.468184  12.914184   # N_3
 56 1 8   0.000000   4.812543  20.700400  14.167800   # C_R
 57 1 8   0.000000   6.106548   0.000000  14.593785   # C_R
 58 1 8   0.000000   6.532563   0.000000  15.887781   # C_R
 59 1 8   0.000000   5.537574   0.000000  16.883792   # C_R
 60 2 9   0.000000   5.903966   0.591425  18.123178   # N_3
 61 1 5   0.000000   7.648566   0.000000  16.119768   # H_
 62 1 10   0.000000   8.377540   0.000000  13.878760   # O_1
 63 1 6   0.000000   7.170536   0.000000  13.529773   # C_2
 64 1 10   0.000000   6.821523  20.700400  12.322777   # O_1
 65 2 7   0.000000   4.468233  19.293120  12.061629   # C_3
 66 2 7   0.000000   5.894530  17.537260  13.286992   # C_3
 67 2 7   0.000000   4.520829  17.866303  12.677702   # C_3
 68 2 5   0.000000   5.981909  16.466582  13.507883   # H_
 69 2 5   0.000000   6.064339  18.057261  14.230691   # H_
 70 2 5   0.000000   3.609322  19.302712  11.372864   # H_
 71 2 5   0.000000   5.309942  19.439030  11.382949   # H_
 72 2 7   0.000000   4.307330  16.868464  11.509383   # C_3
 73 2 7   0.000000   3.419759  17.599724  13.713087   # C_3
 74 2 7   0.000000   6.230257   2.043433  18.180747   # C_3
 75 2 7   0.000000   6.176955   4.521152  17.796426   # C_3
 76 2 5   0.000000   7.267953   4.561759  17.882188   # H_
 77 2 7   0.000000   5.708153   3.161093  17.197349   # C_3
 78 2 5   0.000000   5.866732   5.363409  17.163168   # H_
 79 2 5   0.000000   7.325764   2.105885  18.198141   # H_
 80 2 5   0.000000   5.915962   2.351485  19.187992   # H_
 81 2 7   0.000000   4.181398   3.289556  17.069625   # C_3
 82 2 7   0.000000   6.338642   3.112539  15.792638   # C_3
 83 2 5   0.000000   3.626877  18.088976  14.666755   # H_
 84 2 5   0.000000   3.338935  16.528335  13.932491   # H_
 85 2 5   0.000000   2.443237  17.939960  13.353656   # H_
 86 2 5   0.000000   5.058308  17.012336  10.724079   # H_
 87 2 5   0.000000   4.381381  15.829295  11.851031   # H_
 88 2 5   0.000000   3.317513  16.994443  11.056135   # H_
 89 2 5   0.000000   3.719531   2.445210  16.568599   # H_
 90 2 5   0.000000   3.701460   3.418321  18.044182   # H_
 91 2 5   0.000000   3.917710   4.161553  16.454861   # H_
 92 2 5   0.000000   6.388358   4.107002  15.331374   # H_
 93 2 5   0.000000   5.741706   2.519107  15.101724   # H_
 94 2 5   0.000000   7.362899   2.727616  15.821068   # H_
 95 2 5   0.000000   5.092934   0.390079  18.748482   # H_
 96 2 5   0.000000   3.278022   0.078546  12.880002   # H_
 97 2 5   0.000000   5.745228   4.689942  18.788511   # H_
 98 2 5   0.000000   6.707205  17.792210  12.597845   # H_
 99 1 6   0.000000   3.179581  10.350200   7.170619   # C_2
 100 1 10   0.000000   3.528595  10.350200   8.377615   # O_1
 101 1 10   0.000000   1.972577  10.350200   6.821632   # O_1
 102 1 8   0.000000   4.243569  10.350200   6.106606   # C_R
 103 1 8   0.000000   3.816555  10.350200   4.812611   # C_R
 104 1 5   0.000000   2.700552  10.350200   4.580624   # H_
 105 2 9   0.000000   4.229193  10.117984   2.563984   # N_3
 106 1 8   0.000000   4.812543  10.350200   3.817600   # C_R
 107 1 8   0.000000   6.106548  10.350200   4.243585   # C_R
 108 1 8   0.000000   6.532563  10.350200   5.537581   # C_R
 109 1 8   0.000000   5.537574  10.350200   6.533592   # C_R
 110 2 9   0.000000   5.903966  10.941625   7.772978   # N_3
 111 1 5   0.000000   7.648566  10.350200   5.769568   # H_
 112 1 10   0.000000   8.377540  10.350200   3.528560   # O_1
 113 1 6   0.000000   7.170536  10.350200   3.179573   # C_2
 114 1 10   0.000000   6.821523  10.350200   1.972577   # O_1
 115 2 7   0.000000   4.468233   8.942920   1.711429   # C_3
 116 2 7   0.000000   5.894530   7.187060   2.936792   # C_3
 117 2 7   0.000000   4.520829   7.516103   2.327502   # C_3
 118 2 5   0.000000   5.981909   6.116382   3.157683   # H_
 119 2 5   0.000000   6.064339   7.707061   3.880491   # H_
 120 2 5   0.000000   3.609322   8.952512   1.022664   # H_
 121 2 5   0.000000   5.309942   9.088830   1.032749   # H_
 122 2 7   0.000000   4.307330   6.518264   1.159183   # C_3
 123 2 7   0.000000   3.419759   7.249524   3.362887   # C_3
 124 2 7   0.000000   6.230257  12.393633   7.830547   # C_3
 125 2 7   0.000000   6.176955  14.871352   7.446226   # C_3
 126 2 5   0.000000   7.267953  14.911959   7.531988   # H_
 127 2 7   0.000000   5.708153  13.511293   6.847149   # C_3
 128 2 5   0.000000   5.866732  15.713609   6.812968   # H_
 129 2 5   0.000000   7.325764  12.456085   7.847941   # H_
 130 2 5   0.000000   5.915962  12.701685   8.837792   # H_
 131 2 7   0.000000   4.181398  13.639756   6.719425   # C_3
 132 2 7   0.000000   6.338642  13.462739   5.442438   # C_3
 133 2 5   0.000000   3.626877   7.738776   4.316555   # H_
 134 2 5   0.000000   3.338935   6.178135   3.582291   # H_
 135 2 5   0.000000   2.443237   7.589760   3.003456   # H_
 136 2 5   0.000000   5.058308   6.662136   0.373879   # H_
 137 2 5   0.000000   4.381381   5.479095   1.500831   # H_
 138 2 5   0.000000   3.317513   6.644243   0.705935   # H_
 139 2 5   0.000000   3.719531  12.795410   6.218399   # H_
 140 2 5   0.000000   3.701460  13.768521   7.693982   # H_
 141 2 5   0.000000   3.917710  14.511753   6.104661   # H_
 142 2 5   0.000000   6.388358  14.457202   4.981174   # H_
 143 2 5   0.000000   5.741706  12.869307   4.751524   # H_
 144 2 5   0.000000   7.362899  13.077816   5.470868   # H_
 145 2 5   0.000000   5.092934  10.740279   8.398282   # H_
 146 2 5   0.000000   3.278022  10.428746   2.529802   # H_
 147 2 5   0.000000   5.745228  15.040142   8.438311   # H_
 148 2 5   0.000000   6.707205   7.442010   2.247645   # H_
 149 1 6   0.000000  13.529781   0.000000   7.170619   # C_2
 150 1 10   0.000000  13.878795   0.000000   8.377615   # O_1
 151 1 10   0.000000  12.322777  20.700400   6.821632   # O_1
 152 1 8   0.000000  14.593769   0.000000   6.106606   # C_R
 153 1 8   0.000000  14.166755  20.700400   4.812611   # C_R
 154 1 5   0.000000  13.050752  20.700400   4.580624   # H_
 155 2 9   0.000000  14.579393  20.468184   2.563984   # N_3
 156 1 8   0.000000  15.162743  20.700400   3.817600   # C_R
 157 1 8   0.000000  16.456748   0.000000   4.243585   # C_R
 158 1 8   0.000000  16.882763   0.000000   5.537581   # C_R
 159 1 8   0.000000  15.887774   0.000000   6.533592   # C_R
 160 2 9   0.000000  16.254166   0.591425   7.772978   # N_3
 161 1 5   0.000000  17.998766   0.000000   5.769568   # H_
 162 1 10   0.000000  18.727740   0.000000   3.528560   # O_1
 163 1 6   0.000000  17.520736   0.000000   3.179573   # C_2
 164 1 10   0.000000  17.171723  20.700400   1.972577   # O_1
 165 2 7   0.000000  14.818433  19.293120   1.711429   # C_3
 166 2 7   0.000000  16.244730  17.537260   2.936792   # C_3
 167 2 7   0.000000  14.871029  17.866303   2.327502   # C_3
 168 2 5   0.000000  16.332109  16.466582   3.157683   # H_
 169 2 5   0.000000  16.414539  18.057261   3.880491   # H_
 170 2 5   0.000000  13.959522  19.302712   1.022664   # H_
 171 2 5   0.000000  15.660142  19.439030   1.032749   # H_
 172 2 7   0.000000  14.657530  16.868464   1.159183   # C_3
 173 2 7   0.000000  13.769959  17.599724   3.362887   # C_3
 174 2 7   0.000000  16.580457   2.043433   7.830547   # C_3
 175 2 7   0.000000  16.527155   4.521152   7.446226   # C_3
 176 2 5   0.000000  17.618152   4.561759   7.531988   # H_
 177 2 7   0.000000  16.058353   3.161093   6.847149   # C_3
 178 2 5   0.000000  16.216932   5.363409   6.812968   # H_
 179 2 5   0.000000  17.675964   2.105885   7.847941   # H_
 180 2 5   0.000000  16.266162   2.351485   8.837792   # H_
 181 2 7   0.000000  14.531598   3.289556   6.719425   # C_3
 182 2 7   0.000000  16.688842   3.112539   5.442438   # C_3
 183 2 5   0.000000  13.977077  18.088976   4.316556   # H_
 184 2 5   0.000000  13.689135  16.528335   3.582291   # H_
 185 2 5   0.000000  12.793437  17.939960   3.003456   # H_
 186 2 5   0.000000  15.408508  17.012336   0.373879   # H_
 187 2 5   0.000000  14.731581  15.829295   1.500831   # H_
 188 2 5   0.000000  13.667713  16.994443   0.705935   # H_
 189 2 5   0.000000  14.069731   2.445210   6.218399   # H_
 190 2 5   0.000000  14.051660   3.418321   7.693982   # H_
 191 2 5   0.000000  14.267910   4.161553   6.104661   # H_
 192 2 5   0.000000  16.738558   4.107002   4.981174   # H_
 193 2 5   0.000000  16.091906   2.519107   4.751523   # H_
 194 2 5   0.000000  17.713099   2.727616   5.470868   # H_
 195 2 5   0.000000  15.443134   0.390079   8.398282   # H_
 196 2 5   0.000000  13.628222   0.078546   2.529802   # H_
 197 2 5   0.000000  16.095428   4.689942   8.438311   # H_
 198 2 5   0.000000  17.057405  17.792210   2.247645   # H_
 199 1 6   0.000000  13.529781  10.350200  17.520819   # C_2
 200 1 10   0.000000  13.878795  10.350200  18.727815   # O_1
 201 1 10   0.000000  12.322777  10.350200  17.171832   # O_1
 202 1 8   0.000000  14.593769  10.350200  16.456806   # C_R
 203 1 8   0.000000  14.166755  10.350200  15.162811   # C_R
 204 1 5   0.000000  13.050752  10.350200  14.930824   # H_
 205 2 9   0.000000  14.579393  10.117984  12.914184   # N_3
 206 1 8   0.000000  15.162743  10.350200  14.167800   # C_R
 207 1 8   0.000000  16.456748  10.350200  14.593785   # C_R
 208 1 8   0.000000  16.882763  10.350200  15.887781   # C_R
 209 1 8   0.000000  15.887774  10.350200  16.883792   # C_R
 210 2 9   0.000000  16.254166  10.941625  18.123178   # N_3
 211 1 5   0.000000  17.998766  10.350200  16.119768   # H_
 212 1 10   0.000000  18.727740  10.350200  13.878760   # O_1
 213 1 6   0.000000  17.520736  10.350200  13.529773   # C_2
 214 1 10   0.000000  17.171723  10.350200  12.322777   # O_1
 215 2 7   0.000000  14.818433   8.942920  12.061629   # C_3
 216 2 7   0.000000  16.244730   7.187060  13.286992   # C_3
 217 2 7   0.000000  14.871029   7.516103  12.677702   # C_3
 218 2 5   0.000000  16.332109   6.116382  13.507883   # H_
 219 2 5   0.000000  16.414539   7.707061  14.230691   # H_
 220 2 5   0.000000  13.959522   8.952512  11.372864   # H_
 221 2 5   0.000000  15.660142   9.088830  11.382949   # H_
 222 2 7   0.000000  14.657530   6.518264  11.509383   # C_3
 223 2 7   0.000000  13.769959   7.249524  13.713087   # C_3
 224 2 7   0.000000  16.580457  12.393633  18.180747   # C_3
 225 2 7   0.000000  16.527155  14.871352  17.796426   # C_3
 226 2 5   0.000000  17.618153  14.911959  17.882188   # H_
 227 2 7   0.000000  16.058353  13.511293  17.197349   # C_3
 228 2 5   0.000000  16.216932  15.713609  17.163168   # H_
 229 2 5   0.000000  17.675964  12.456085  18.198141   # H_
 230 2 5   0.000000  16.266162  12.701685  19.187992   # H_
 231 2 7   0.000000  14.531598  13.639756  17.069625   # C_3
 232 2 7   0.000000  16.688842  13.462739  15.792638   # C_3
 233 2 5   0.000000  13.977077   7.738776  14.666755   # H_
 234 2 5   0.000000  13.689135   6.178135  13.932491   # H_
 235 2 5   0.000000  12.793437   7.589760  13.353656   # H_
 236 2 5   0.000000  15.408508   6.662136  10.724079   # H_
 237 2 5   0.000000  14.731581   5.479095  11.851031   # H_
 238 2 5   0.000000  13.667713   6.644243  11.056135   # H_
 239 2 5   0.000000  14.069731  12.795410  16.568599   # H_
 240 2 5   0.000000  14.051660  13.768521  18.044182   # H_
 241 2 5   0.000000  14.267910  14.511753  16.454861   # H_
 242 2 5   0.000000  16.738558  14.457202  15.331374   # H_
 243 2 5   0.000000  16.091906  12.869307  15.101724   # H_
 244 2 5   0.000000  17.713099  13.077816  15.821068   # H_
 245 2 5   0.000000  15.443134  10.740279  18.748482   # H_
 246 2 5   0.000000  13.628222  10.428746  12.880002   # H_
 247 2 5   0.000000  16.095428  15.040142  18.788511   # H_
 248 2 5   0.000000  17.057405   7.442010  12.597845   # H_
 249 1 6   0.000000  17.520819   0.000000  17.520819   # C_2
 250 1 10   0.000000  17.171805   0.000000  18.727815   # O_1
 251 1 10   0.000000  18.727823   0.000000  17.171832   # O_1
 252 1 8   0.000000  16.456831   0.000000  16.456806   # C_R
 253 1 8   0.000000  16.883845   0.000000  15.162811   # C_R
 254 1 5   0.000000  17.999848   0.000000  14.930824   # H_
 255 2 9   0.000000  16.471207   0.232216  12.914184   # N_3
 256 1 8   0.000000  15.887857   0.000000  14.167800   # C_R
 257 1 8   0.000000  14.593852   0.000000  14.593785   # C_R
 258 1 8   0.000000  14.167837   0.000000  15.887781   # C_R
 259 1 8   0.000000  15.162826   0.000000  16.883792   # C_R
 260 2 9   0.000000  14.796434  20.108975  18.123178   # N_3
 261 1 5   0.000000  13.051834   0.000000  16.119768   # H_
 262 1 10   0.000000  12.322860   0.000000  13.878760   # O_1
 263 1 6   0.000000  13.529864   0.000000  13.529773   # C_2
 264 1 10   0.000000  13.878877   0.000000  12.322777   # O_1
 265 2 7   0.000000  16.232167   1.407280  12.061629   # C_3
 266 2 7   0.000000  14.805870   3.163140  13.286992   # C_3
 267 2 7   0.000000  16.179571   2.834097  12.677702   # C_3
 268 2 5   0.000000  14.718491   4.233818  13.507883   # H_
 269 2 5   0.000000  14.636061   2.643139  14.230691   # H_
 270 2 5   0.000000  17.091078   1.397688  11.372864   # H_
 271 2 5   0.000000  15.390458   1.261370  11.382949   # H_
 272 2 7   0.000000  16.393070   3.831936  11.509383   # C_3
 273 2 7   0.000000  17.280641   3.100676  13.713087   # C_3
 274 2 7   0.000000  14.470143  18.656967  18.180747   # C_3
 275 2 7   0.000000  14.523445  16.179248  17.796426   # C_3
 276 2 5   0.000000  13.432447  16.138641  17.882188   # H_
 277 2 7   0.000000  14.992247  17.539307  17.197349   # C_3
 278 2 5   0.000000  14.833668  15.336991  17.163168   # H_
 279 2 5   0.000000  13.374636  18.594515  18.198141   # H_
 280 2 5   0.000000  14.784438  18.348915  19.187992   # H_
 281 2 7   0.000000  16.519002  17.410844  17.069625   # C_3
 282 2 7   0.000000  14.361758  17.587861  15.792638   # C_3
 283 2 5   0.000000  17.073523   2.611424  14.666755   # H_
 284 2 5   0.000000  17.361465   4.172065  13.932491   # H_
 285 2 5   0.000000  18.257163   2.760440  13.353656   # H_
 286 2 5   0.000000  15.642092   3.688064  10.724079   # H_
 287 2 5   0.000000  16.319019   4.871105  11.851031   # H_
 288 2 5   0.000000  17.382887   3.705957  11.056135   # H_
 289 2 5   0.000000  16.980869  18.255190  16.568599   # H_
 290 2 5   0.000000  16.998940  17.282079  18.044182   # H_
 291 2 5   0.000000  16.782690  16.538847  16.454861   # H_
 292 2 5   0.000000  14.312042  16.593398  15.331374   # H_
 293 2 5   0.000000  14.958694  18.181293  15.101724   # H_
 294 2 5   0.000000  13.337501  17.972784  15.821068   # H_
 295 2 5   0.000000  15.607466  20.310321  18.748482   # H_
 296 2 5   0.000000  17.422378  20.621854  12.880002   # H_
 297 2 5   0.000000  14.955172  16.010458  18.788511   # H_
 298 2 5   0.000000  13.993195   2.908190  12.597845   # H_
 299 1 6   0.000000  17.520819  10.350200   7.170619   # C_2
 300 1 10   0.000000  17.171805  10.350200   8.377615   # O_1
 301 1 10   0.000000  18.727823  10.350200   6.821632   # O_1
 302 1 8   0.000000  16.456831  10.350200   6.106606   # C_R
 303 1 8   0.000000  16.883845  10.350200   4.812611   # C_R
 304 1 5   0.000000  17.999848  10.350200   4.580624   # H_
 305 2 9   0.000000  16.471207  10.582416   2.563984   # N_3
 306 1 8   0.000000  15.887857  10.350200   3.817600   # C_R
 307 1 8   0.000000  14.593852  10.350200   4.243585   # C_R
 308 1 8   0.000000  14.167837  10.350200   5.537581   # C_R
 309 1 8   0.000000  15.162826  10.350200   6.533592   # C_R
 310 2 9   0.000000  14.796434   9.758775   7.772978   # N_3
 311 1 5   0.000000  13.051834  10.350200   5.769568   # H_
 312 1 10   0.000000  12.322860  10.350200   3.528560   # O_1
 313 1 6   0.000000  13.529864  10.350200   3.179573   # C_2
 314 1 10   0.000000  13.878877  10.350200   1.972577   # O_1
 315 2 7   0.000000  16.232167  11.757480   1.711429   # C_3
 316 2 7   0.000000  14.805870  13.513340   2.936792   # C_3
 317 2 7   0.000000  16.179571  13.184297   2.327502   # C_3
 318 2 5   0.000000  14.718491  14.584018   3.157683   # H_
 319 2 5   0.000000  14.636061  12.993339   3.880491   # H_
 320 2 5   0.000000  17.091078  11.747888   1.022664   # H_
 321 2 5   0.000000  15.390458  11.611570   1.032749   # H_
 322 2 7   0.000000  16.393070  14.182136   1.159183   # C_3
 323 2 7   0.000000  17.280641  13.450876   3.362887   # C_3
 324 2 7   0.000000  14.470143   8.306767   7.830547   # C_3
 325 2 7   0.000000  14.523445   5.829048   7.446226   # C_3
 326 2 5   0.000000  13.432447   5.788441   7.531988   # H_
 327 2 7   0.000000  14.992247   7.189107   6.847149   # C_3
 328 2 5   0.000000  14.833668   4.986791   6.812968   # H_
 329 2 5   0.000000  13.374636   8.244315   7.847941   # H_
 330 2 5   0.000000  14.784438   7.998715   8.837792   # H_
 331 2 7   0.000000  16.519002   7.060644   6.719425   # C_3
 332 2 7   0.000000  14.361758   7.237661   5.442438   # C_3
 333 2 5   0.000000  17.073523  12.961624   4.316555   # H_
 334 2 5   0.000000  17.361465  14.522265   3.582291   # H_
 335 2 5   0.000000  18.257163  13.110640   3.003456   # H_
 336 2 5   0.000000  15.642092  14.038264   0.373879   # H_
 337 2 5   0.000000  16.319019  15.221305   1.500831   # H_
 338 2 5   0.000000  17.382887  14.056157   0.705935   # H_
 339 2 5   0.000000  16.980869   7.904990   6.218399   # H_
 340 2 5   0.000000  16.998940   6.931879   7.693982   # H_
 341 2 5   0.000000  16.782690   6.188647   6.104661   # H_
 342 2 5   0.000000  14.312042   6.243198   4.981174   # H_
 343 2 5   0.000000  14.958694   7.831093   4.751524   # H_
 344 2 5   0.000000  13.337501   7.622584   5.470868   # H_
 345 2 5   0.000000  15.607466   9.960121   8.398282   # H_
 346 2 5   0.000000  17.422378  10.271654   2.529802   # H_
 347 2 5   0.000000  14.955172   5.660258   8.438312   # H_
 348 2 5   0.000000  13.993195  13.258390   2.247645   # H_
 349 1 6   0.000000   7.170619   0.000000   7.170619   # C_2
 350 1 10   0.000000   6.821605   0.000000   8.377615   # O_1
 351 1 10   0.000000   8.377623   0.000000   6.821632   # O_1
 352 1 8   0.000000   6.106631   0.000000   6.106606   # C_R
 353 1 8   0.000000   6.533645   0.000000   4.812611   # C_R
 354 1 5   0.000000   7.649648   0.000000   4.580624   # H_
 355 2 9   0.000000   6.121007   0.232216   2.563984   # N_3
 356 1 8   0.000000   5.537657   0.000000   3.817600   # C_R
 357 1 8   0.000000   4.243652   0.000000   4.243585   # C_R
 358 1 8   0.000000   3.817637   0.000000   5.537581   # C_R
 359 1 8   0.000000   4.812626   0.000000   6.533592   # C_R
 360 2 9   0.000000   4.446234  20.108975   7.772978   # N_3
 361 1 5   0.000000   2.701634   0.000000   5.769568   # H_
 362 1 10   0.000000   1.972660   0.000000   3.528560   # O_1
 363 1 6   0.000000   3.179664   0.000000   3.179573   # C_2
 364 1 10   0.000000   3.528677   0.000000   1.972577   # O_1
 365 2 7   0.000000   5.881967   1.407280   1.711429   # C_3
 366 2 7   0.000000   4.455670   3.163140   2.936792   # C_3
 367 2 7   0.000000   5.829371   2.834097   2.327502   # C_3
 368 2 5   0.000000   4.368291   4.233818   3.157683   # H_
 369 2 5   0.000000   4.285861   2.643139   3.880491   # H_
 370 2 5   0.000000   6.740878   1.397688   1.022664   # H_
 371 2 5   0.000000   5.040258   1.261370   1.032749   # H_
 372 2 7   0.000000   6.042870   3.831936   1.159183   # C_3
 373 2 7   0.000000   6.930441   3.100676   3.362887   # C_3
 374 2 7   0.000000   4.119943  18.656967   7.830547   # C_3
 375 2 7   0.000000   4.173245  16.179248   7.446226   # C_3
 376 2 5   0.000000   3.082247  16.138641   7.531988   # H_
 377 2 7   0.000000   4.642047  17.539307   6.847149   # C_3
 378 2 5   0.000000   4.483468  15.336991   6.812968   # H_
 379 2 5   0.000000   3.024436  18.594515   7.847941   # H_
 380 2 5   0.000000   4.434238  18.348915   8.837792   # H_
 381 2 7   0.000000   6.168802  17.410844   6.719425   # C_3
 382 2 7   0.000000   4.011558  17.587861   5.442438   # C_3
 383 2 5   0.000000   6.723323   2.611424   4.316555   # H_
 384 2 5   0.000000   7.011265   4.172065   3.582291   # H_
 385 2 5   0.000000   7.906963   2.760440   3.003456   # H_
 386 2 5   0.000000   5.291892   3.688064   0.373879   # H_
 387 2 5   0.000000   5.968819   4.871105   1.500831   # H_
 388 2 5   0.000000   7.032687   3.705957   0.705935   # H_
 389 2 5   0.000000   6.630669  18.255190   6.218399   # H_
 390 2 5   0.000000   6.648740  17.282079   7.693982   # H_
 391 2 5   0.000000   6.432490  16.538847   6.104661   # H_
 392 2 5   0.000000   3.961842  16.593398   4.981174   # H_
 393 2 5   0.000000   4.608494  18.181293   4.751524   # H_
 394 2 5   0.000000   2.987301  17.972784   5.470868   # H_
 395 2 5   0.000000   5.257266  20.310321   8.398282   # H_
 396 2 5   0.000000   7.072178  20.621854   2.529802   # H_
 397 2 5   0.000000   4.604972  16.010458   8.438311   # H_
 398 2 5   0.000000   3.642995   2.908190   2.247645   # H_
 399 1 6   0.000000   7.170619  10.350200  17.520819   # C_2
 400 1 10   0.000000   6.821605  10.350200  18.727815   # O_1
 401 1 10   0.000000   8.377623  10.350200  17.171832   # O_1
 402 1 8   0.000000   6.106631  10.350200  16.456806   # C_R
 403 1 8   0.000000   6.533645  10.350200  15.162811   # C_R
 404 1 5   0.000000   7.649648  10.350200  14.930824   # H_
 405 2 9   0.000000   6.121007  10.582416  12.914184   # N_3
 406 1 8   0.000000   5.537657  10.350200  14.167800   # C_R
 407 1 8   0.000000   4.243652  10.350200  14.593785   # C_R
 408 1 8   0.000000   3.817637  10.350200  15.887781   # C_R
 409 1 8   0.000000   4.812626  10.350200  16.883792   # C_R
 410 2 9   0.000000   4.446234   9.758775  18.123178   # N_3
 411 1 5   0.000000   2.701634  10.350200  16.119768   # H_
 412 1 10   0.000000   1.972660  10.350200  13.878760   # O_1
 413 1 6   0.000000   3.179664  10.350200  13.529773   # C_2
 414 1 10   0.000000   3.528677  10.350200  12.322777   # O_1
 415 2 7   0.000000   5.881967  11.757480  12.061629   # C_3
 416 2 7   0.000000   4.455670  13.513340  13.286992   # C_3
 417 2 7   0.000000   5.829371  13.184297  12.677702   # C_3
 418 2 5   0.000000   4.368291  14.584018  13.507883   # H_
 419 2 5   0.000000   4.285861  12.993339  14.230691   # H_
 420 2 5   0.000000   6.740878  11.747888  11.372864   # H_
 421 2 5   0.000000   5.040258  11.611570  11.382949   # H_
 422 2 7   0.000000   6.042870  14.182136  11.509383   # C_3
 423 2 7   0.000000   6.930441  13.450876  13.713087   # C_3
 424 2 7   0.000000   4.119943   8.306767  18.180747   # C_3
 425 2 7   0.000000   4.173245   5.829048  17.796426   # C_3
 426 2 5   0.000000   3.082247   5.788441  17.882188   # H_
 427 2 7   0.000000   4.642047   7.189107  17.197349   # C_3
 428 2 5   0.000000   4.483468   4.986791  17.163168   # H_
 429 2 5   0.000000   3.024436   8.244315  18.198141   # H_
 430 2 5   0.000000   4.434238   7.998715  19.187992   # H_
 431 2 7   0.000000   6.168802   7.060644  17.069625   # C_3
 432 2 7   0.000000   4.011558   7.237661  15.792638   # C_3
 433 2 5   0.000000   6.723323  12.961624  14.666755   # H_
 434 2 5   0.000000   7.011265  14.522265  13.932491   # H_
 435 2 5   0.000000   7.906963  13.110640  13.353656   # H_
 436 2 5   0.000000   5.291892  14.038264  10.724079   # H_
 437 2 5   0.000000   5.968819  15.221305  11.851031   # H_
 438 2 5   0.000000   7.032687  14.056157  11.056135   # H_
 439 2 5   0.000000   6.630669   7.904990  16.568599   # H_
 440 2 5   0.000000   6.648740   6.931879  18.044182   # H_
 441 2 5   0.000000   6.432490   6.188647  16.454861   # H_
 442 2 5   0.000000   3.961842   6.243198  15.331374   # H_
 443 2 5   0.000000   4.608494   7.831093  15.101724   # H_
 444 2 5   0.000000   2.987301   7.622584  15.821068   # H_
 445 2 5   0.000000   5.257266   9.960121  18.748482   # H_
 446 2 5   0.000000   7.072178  10.271654  12.880002   # H_
 447 2 5   0.000000   4.604972   5.660258  18.788511   # H_
 448 2 5   0.000000   3.642995  13.258390  12.597845   # H_
 449 1 6   0.000000  17.520819   3.179581   0.000000   # C_2
 450 1 10   0.000000  18.727815   3.528595  20.700400   # O_1
 451 1 10   0.000000  17.171832   1.972577   0.000000   # O_1
 452 1 8   0.000000  16.456806   4.243569  20.700400   # C_R
 453 1 8   0.000000  15.162811   3.816555   0.000000   # C_R
 454 1 5   0.000000  14.930824   2.700552   0.000000   # H_
 455 2 9   0.000000  12.914184   4.229193  20.468184   # N_3
 456 1 8   0.000000  14.167800   4.812543   0.000000   # C_R
 457 1 8   0.000000  14.593785   6.106548  20.700400   # C_R
 458 1 8   0.000000  15.887781   6.532563  20.700400   # C_R
 459 1 8   0.000000  16.883792   5.537574  20.700400   # C_R
 460 2 9   0.000000  18.123178   5.903966   0.591425   # N_3
 461 1 5   0.000000  16.119768   7.648566  20.700400   # H_