 (written by mofun)

696 atoms
288 bonds
552 angles
768 dihedrals
0 impropers

10 atom types
5 bond types
9 angle types
13 dihedral types
   0.000000  20.700400 xlo xhi
   0.000000  20.700400 ylo yhi
   0.000000  20.700400 zlo zhi

Masses

 1 91.2240   # Zr3+4
 2 15.9994   # O_3
 3 12.0107   # C_3
 4 1.0079   # H_
 5 1.0079   # H_
 6 12.0107   # C_2
 7 12.0107   # C_3
 8 12.0107   # C_R
 9 14.0067   # N_3
 10 15.9994   # O_1

Pair Coeffs

 1   0.069000   2.783168 # Zr3+4
 2   0.060000   3.118146 # O_3
 3   0.105000   3.430851 # C_3
 4   0.044000   2.571134 # H_
 5 0.044000 2.571134   # H_
 6 0.105000 3.430851   # C_2
 7 0.105000 3.430851   # C_3
 8 0.105000 3.430851   # C_R
 9 0.069000 3.260689   # N_3
 10 0.060000 3.118146   # O_1

Bond Coeffs

 1 560.312976 1.423192   # C_R N_3
 2 527.945261 1.044419   # H_ N_3
 3 528.634538 1.451071   # C_3 N_3
 4 331.069389 1.109401   # C_3 H_
 5 349.795899 1.514000   # C_3 C_3

Angle Coeffs

 1 cosine/periodic  282.369526  -1  3   # C_R C_R N_3
 2 fourier  150.574599  0.317506  0.313225  0.272502   # C_R N_3 H_
 3 fourier  268.482172  0.317506  0.313225  0.272502   # C_3 N_3 C_R
 4 fourier  144.695053  0.317506  0.313225  0.272502   # C_3 N_3 H_
 5 fourier  169.780468  0.343737  0.374972  0.281246   # H_ C_3 N_3
 6 fourier  303.297032  0.343737  0.374972  0.281246   # C_3 C_3 N_3
 7 fourier  75.498766  0.343737  0.374972  0.281246   # H_ C_3 H_
 8 fourier  117.318683  0.343737  0.374972  0.281246   # C_3 C_3 H_
 9 fourier  214.211821  0.343737  0.374972  0.281246   # C_3 C_3 C_3

Dihedral Coeffs

 1 harmonic 3.368555 -1 2   # C_2 C_R C_R N_3 M=4
 2 harmonic 3.368555 -1 2   # C_R C_R C_R N_3 M=4
 3 harmonic 0.125000 -1 6   # C_R C_R N_3 H_ M=4
 4 harmonic 0.125000 -1 6   # C_3 N_3 C_R C_R M=4
 5 harmonic 3.368555 -1 2   # H_ C_R C_R N_3 M=4
 6 harmonic 0.081375 1 3   # C_R N_3 C_3 H_ M=6
 7 harmonic 0.081375 1 3   # C_3 C_3 N_3 C_R M=6
 8 harmonic 0.081375 1 3   # H_ C_3 N_3 H_ M=6
 9 harmonic 0.081375 1 3   # C_3 C_3 N_3 H_ M=6
 10 harmonic 0.117722 1 3   # H_ C_3 C_3 N_3 M=9
 11 harmonic 0.117722 1 3   # C_3 C_3 C_3 N_3 M=9
 12 harmonic 0.117722 1 3   # H_ C_3 C_3 H_ M=9
 13 harmonic 0.117722 1 3   # C_3 C_3 C_3 H_ M=9

Atoms

 1 1 1   0.000000   2.481771   0.000000   0.000000   # Zr3+4
 2 1 1   0.000000   2.481771  10.350200  10.350200   # Zr3+4
 3 1 1   0.000000  12.831971   0.000000  10.350200   # Zr3+4
 4 1 1   0.000000  12.831971  10.350200   0.000000   # Zr3+4
 5 1 1   0.000000  18.218629   0.000000   0.000000   # Zr3+4
 6 1 1   0.000000  18.218629  10.350200  10.350200   # Zr3+4
 7 1 1   0.000000   7.868429   0.000000  10.350200   # Zr3+4
 8 1 1   0.000000   7.868429  10.350200   0.000000   # Zr3+4
 9 1 1   0.000000   0.000000   2.481771   0.000000   # Zr3+4
 10 1 1   0.000000   0.000000  12.831971  10.350200   # Zr3+4
 11 1 1   0.000000  10.350200   2.481771  10.350200   # Zr3+4
 12 1 1   0.000000  10.350200  12.831971   0.000000   # Zr3+4
 13 1 1   0.000000   0.000000  18.218629   0.000000   # Zr3+4
 14 1 1   0.000000   0.000000   7.868429  10.350200   # Zr3+4
 15 1 1   0.000000  10.350200  18.218629  10.350200   # Zr3+4
 16 1 1   0.000000  10.350200   7.868429   0.000000   # Zr3+4
 17 1 1   0.000000   0.000000   0.000000   2.481771   # Zr3+4
 18 1 1   0.000000   0.000000  10.350200  12.831971   # Zr3+4
 19 1 1   0.000000  10.350200   0.000000  12.831971   # Zr3+4
 20 1 1   0.000000  10.350200  10.350200   2.481771   # Zr3+4
 21 1 1   0.000000   0.000000   0.000000  18.218629   # Zr3+4
 22 1 1   0.000000   0.000000  10.350200   7.868429   # Zr3+4
 23 1 1   0.000000  10.350200   0.000000   7.868429   # Zr3+4
 24 1 1   0.000000  10.350200  10.350200  18.218629   # Zr3+4
 25 1 2   0.000000   1.161292   9.188908   9.188908   # O_3
 26 1 2   0.000000  11.511492  19.539108   9.188908   # O_3
 27 1 2   0.000000  11.511492   9.188908  19.539108   # O_3
 28 1 2   0.000000   9.188908   1.161292   9.188908   # O_3
 29 1 2   0.000000   9.188908  11.511492  19.539108   # O_3
 30 1 2   0.000000  19.539108  19.539108   1.161292   # O_3
 31 1 2   0.000000  19.539108   9.188908  11.511492   # O_3
 32 1 2   0.000000   1.161292   1.161292   1.161292   # O_3
 33 1 2   0.000000  11.511492  11.511492   1.161292   # O_3
 34 1 2   0.000000  19.539108   1.161292   1.161292   # O_3
 35 1 2   0.000000  19.539108  11.511492  11.511492   # O_3
 36 1 2   0.000000   9.188908   1.161292  11.511492   # O_3
 37 1 2   0.000000   9.188908  11.511492   1.161292   # O_3
 38 1 2   0.000000   1.161292  19.539108   1.161292   # O_3
 39 1 2   0.000000   1.161292   9.188908  11.511492   # O_3
 40 1 2   0.000000  11.511492  19.539108  11.511492   # O_3
 41 1 2   0.000000  11.511492   9.188908   1.161292   # O_3
 42 1 2   0.000000  19.539108  19.539108  19.539108   # O_3
 43 1 2   0.000000  19.539108   9.188908   9.188908   # O_3
 44 1 2   0.000000   9.188908  19.539108   9.188908   # O_3
 45 1 2   0.000000   9.188908   9.188908  19.539108   # O_3
 46 1 2   0.000000   1.161292   1.161292  19.539108   # O_3
 47 1 2   0.000000   1.161292  11.511492   9.188908   # O_3
 48 1 2   0.000000  11.511492   1.161292   9.188908   # O_3
 49 1 6   0.000000   3.179581   0.000000  17.520819   # C_2
 50 1 10   0.000000   3.528595   0.000000  18.727815   # O_1
 51 1 10   0.000000   1.972577  20.700400  17.171832   # O_1
 52 1 8   0.000000   4.243569   0.000000  16.456806   # C_R
 53 1 8   0.000000   3.816555  20.700400  15.162811   # C_R
 54 2 9   0.000000   2.700552  20.700400  14.930824   # N_3
 55 1 5   0.000000   4.580531  20.700400  13.051803   # H_
 56 1 8   0.000000   4.812543  20.700400  14.167800   # C_R
 57 1 8   0.000000   6.106548   0.000000  14.593785   # C_R
 58 1 8   0.000000   6.532563   0.000000  15.887781   # C_R
 59 1 8   0.000000   5.537574   0.000000  16.883792   # C_R
 60 1 5   0.000000   5.769587   0.000000  17.999789   # H_
 61 1 5   0.000000   7.648566   0.000000  16.119768   # H_
 62 1 10   0.000000   8.377540   0.000000  13.878760   # O_1
 63 1 6   0.000000   7.170536   0.000000  13.529773   # C_2
 64 1 10   0.000000   6.821523  20.700400  12.322777   # O_1
 65 2 5   0.000000   2.029652  20.672319  15.718483   # H_
 66 2 7   0.000000   1.942431   0.069039  13.696869   # C_3
 67 2 5   0.000000   2.527472   0.467112  12.860527   # H_
 68 2 5   0.000000   1.114969   0.776181  13.838371   # H_
 69 2 7   0.000000   1.369314  19.395594  13.354078   # C_3
 70 2 5   0.000000   2.155969  18.632527  13.387896   # H_
 71 2 7   0.000000   0.728879  19.388800  11.975415   # C_3
 72 2 5   0.000000   0.621417  19.113474  14.105108   # H_
 73 2 5   0.000000   1.478762  19.571404  11.198806   # H_
 74 2 5   0.000000  20.655928  20.159175  11.893995   # H_
 75 2 5   0.000000   0.265942  18.417330  11.776388   # H_
 76 1 6   0.000000   3.179581  10.350200   7.170619   # C_2
 77 1 10   0.000000   3.528595  10.350200   8.377615   # O_1
 78 1 10   0.000000   1.972577  10.350200   6.821632   # O_1
 79 1 8   0.000000   4.243569  10.350200   6.106606   # C_R
 80 1 8   0.000000   3.816555  10.350200   4.812611   # C_R
 81 2 9   0.000000   2.700552  10.350200   4.580624   # N_3
 82 1 5   0.000000   4.580531  10.350200   2.701603   # H_
 83 1 8   0.000000   4.812543  10.350200   3.817600   # C_R
 84 1 8   0.000000   6.106548  10.350200   4.243585   # C_R
 85 1 8   0.000000   6.532563  10.350200   5.537581   # C_R
 86 1 8   0.000000   5.537574  10.350200   6.533592   # C_R
 87 1 5   0.000000   5.769587  10.350200   7.649589   # H_
 88 1 5   0.000000   7.648566  10.350200   5.769568   # H_
 89 1 10   0.000000   8.377540  10.350200   3.528560   # O_1
 90 1 6   0.000000   7.170536  10.350200   3.179573   # C_2
 91 1 10   0.000000   6.821523  10.350200   1.972577   # O_1
 92 2 5   0.000000   2.029652  10.322119   5.368283   # H_
 93 2 7   0.000000   1.942431  10.419239   3.346669   # C_3
 94 2 5   0.000000   2.527472  10.817312   2.510327   # H_
 95 2 5   0.000000   1.114969  11.126381   3.488171   # H_
 96 2 7   0.000000   1.369314   9.045394   3.003878   # C_3
 97 2 5   0.000000   2.155969   8.282327   3.037696   # H_
 98 2 7   0.000000   0.728879   9.038600   1.625215   # C_3
 99 2 5   0.000000   0.621417   8.763274   3.754908   # H_
 100 2 5   0.000000   1.478762   9.221204   0.848606   # H_
 101 2 5   0.000000  20.655928   9.808975   1.543795   # H_
 102 2 5   0.000000   0.265942   8.067130   1.426188   # H_
 103 1 6   0.000000  13.529781   0.000000   7.170619   # C_2
 104 1 10   0.000000  13.878795   0.000000   8.377615   # O_1
 105 1 10   0.000000  12.322777  20.700400   6.821632   # O_1
 106 1 8   0.000000  14.593769   0.000000   6.106606   # C_R
 107 1 8   0.000000  14.166755  20.700400   4.812611   # C_R
 108 2 9   0.000000  13.050752  20.700400   4.580624   # N_3
 109 1 5   0.000000  14.930731  20.700400   2.701603   # H_
 110 1 8   0.000000  15.162743  20.700400   3.817600   # C_R
 111 1 8   0.000000  16.456748   0.000000   4.243585   # C_R
 112 1 8   0.000000  16.882763   0.000000   5.537581   # C_R
 113 1 8   0.000000  15.887774   0.000000   6.533592   # C_R
 114 1 5   0.000000  16.119787   0.000000   7.649589   # H_
 115 1 5   0.000000  17.998766   0.000000   5.769568   # H_
 116 1 10   0.000000  18.727740   0.000000   3.528560   # O_1
 117 1 6   0.000000  17.520736   0.000000   3.179573   # C_2
 118 1 10   0.000000  17.171723  20.700400   1.972577   # O_1
 119 2 5   0.000000  12.379852  20.672319   5.368283   # H_
 120 2 7   0.000000  12.292631   0.069039   3.346669   # C_3
 121 2 5   0.000000  12.877672   0.467112   2.510327   # H_
 122 2 5   0.000000  11.465169   0.776181   3.488171   # H_
 123 2 7   0.000000  11.719514  19.395594   3.003878   # C_3
 124 2 5   0.000000  12.506169  18.632527   3.037696   # H_
 125 2 7   0.000000  11.079079  19.388800   1.625215   # C_3
 126 2 5   0.000000  10.971617  19.113474   3.754908   # H_
 127 2 5   0.000000  11.828962  19.571404   0.848606   # H_
 128 2 5   0.000000  10.305728  20.159175   1.543795   # H_
 129 2 5   0.000000  10.616142  18.417330   1.426188   # H_
 130 1 6   0.000000  13.529781  10.350200  17.520819   # C_2
 131 1 10   0.000000  13.878795  10.350200  18.727815   # O_1
 132 1 10   0.000000  12.322777  10.350200  17.171832   # O_1
 133 1 8   0.000000  14.593769  10.350200  16.456806   # C_R
 134 1 8   0.000000  14.166755  10.350200  15.162811   # C_R
 135 2 9   0.000000  13.050752  10.350200  14.930824   # N_3
 136 1 5   0.000000  14.930731  10.350200  13.051803   # H_
 137 1 8   0.000000  15.162743  10.350200  14.167800   # C_R
 138 1 8   0.000000  16.456748  10.350200  14.593785   # C_R
 139 1 8   0.000000  16.882763  10.350200  15.887781   # C_R
 140 1 8   0.000000  15.887774  10.350200  16.883792   # C_R
 141 1 5   0.000000  16.119787  10.350200  17.999789   # H_
 142 1 5   0.000000  17.998766  10.350200  16.119768   # H_
 143 1 10   0.000000  18.727740  10.350200  13.878760   # O_1
 144 1 6   0.000000  17.520736  10.350200  13.529773   # C_2
 145 1 10   0.000000  17.171723  10.350200  12.322777   # O_1
 146 2 5   0.000000  12.379852  10.322119  15.718483   # H_
 147 2 7   0.000000  12.292631  10.419239  13.696869   # C_3
 148 2 5   0.000000  12.877672  10.817312  12.860527   # H_
 149 2 5   0.000000  11.465169  11.126381  13.838371   # H_
 150 2 7   0.000000  11.719514   9.045394  13.354078   # C_3
 151 2 5   0.000000  12.506169   8.282327  13.387896   # H_
 152 2 7   0.000000  11.079079   9.038600  11.975415   # C_3
 153 2 5   0.000000  10.971617   8.763274  14.105108   # H_
 154 2 5   0.000000  11.828962   9.221204  11.198806   # H_
 155 2 5   0.000000  10.305728   9.808975  11.893995   # H_
 156 2 5   0.000000  10.616142   8.067130  11.776388   # H_
 157 1 6   0.000000  17.520819   0.000000  17.520819   # C_2
 158 1 10   0.000000  17.171805   0.000000  18.727815   # O_1
 159 1 10   0.000000  18.727823   0.000000  17.171832   # O_1
 160 1 8   0.000000  16.456831   0.000000  16.456806   # C_R
 161 1 8   0.000000  16.883845   0.000000  15.162811   # C_R
 162 2 9   0.000000  17.999848   0.000000  14.930824   # N_3
 163 1 5   0.000000  16.119869   0.000000  13.051803   # H_
 164 1 8   0.000000  15.887857   0.000000  14.167800   # C_R
 165 1 8   0.000000  14.593852   0.000000  14.593785   # C_R
 166 1 8   0.000000  14.167837   0.000000  15.887781   # C_R
 167 1 8   0.000000  15.162826   0.000000  16.883792   # C_R
 168 1 5   0.000000  14.930813   0.000000  17.999789   # H_
 169 1 5   0.000000  13.051834   0.000000  16.119768   # H_
 170 1 10   0.000000  12.322860   0.000000  13.878760   # O_1
 171 1 6   0.000000  13.529864   0.000000  13.529773   # C_2
 172 1 10   0.000000  13.878877   0.000000  12.322777   # O_1
 173 2 5   0.000000  18.670748   0.028081  15.718483   # H_
 174 2 7   0.000000  18.757969  20.631361  13.696869   # C_3
 175 2 5   0.000000  18.172928  20.233288  12.860527   # H_
 176 2 5   0.000000  19.585431  19.924219  13.838371   # H_
 177 2 7   0.000000  19.331086   1.304806  13.354078   # C_3
 178 2 5   0.000000  18.544431   2.067873  13.387896   # H_
 179 2 7   0.000000  19.971521   1.311600  11.975415   # C_3
 180 2 5   0.000000  20.078983   1.586926  14.105108   # H_
 181 2 5   0.000000  19.221638   1.128996  11.198806   # H_
 182 2 5   0.000000   0.044472   0.541225  11.893995   # H_
 183 2 5   0.000000  20.434458   2.283070  11.776388   # H_
 184 1 6   0.000000  17.520819  10.350200   7.170619   # C_2
 185 1 10   0.000000  17.171805  10.350200   8.377615   # O_1
 186 1 10   0.000000  18.727823  10.350200   6.821632   # O_1
 187 1 8   0.000000  16.456831  10.350200   6.106606   # C_R
 188 1 8   0.000000  16.883845  10.350200   4.812611   # C_R
 189 2 9   0.000000  17.999848  10.350200   4.580624   # N_3
 190 1 5   0.000000  16.119869  10.350200   2.701603   # H_
 191 1 8   0.000000  15.887857  10.350200   3.817600   # C_R
 192 1 8   0.000000  14.593852  10.350200   4.243585   # C_R
 193 1 8   0.000000  14.167837  10.350200   5.537581   # C_R
 194 1 8   0.000000  15.162826  10.350200   6.533592   # C_R
 195 1 5   0.000000  14.930813  10.350200   7.649589   # H_
 196 1 5   0.000000  13.051834  10.350200   5.769568   # H_
 197 1 10   0.000000  12.322860  10.350200   3.528560   # O_1
 198 1 6   0.000000  13.529864  10.350200   3.179573   # C_2
 199 1 10   0.000000  13.878877  10.350200   1.972577   # O_1
 200 2 5   0.000000  18.670748  10.378281   5.368283   # H_
 201 2 7   0.000000  18.757969  10.281161   3.346669   # C_3
 202 2 5   0.000000  18.172928   9.883088   2.510327   # H_
 203 2 5   0.000000  19.585431   9.574019   3.488171   # H_
 204 2 7   0.000000  19.331086  11.655006   3.003878   # C_3
 205 2 5   0.000000  18.544431  12.418073   3.037696   # H_
 206 2 7   0.000000  19.971521  11.661800   1.625215   # C_3
 207 2 5   0.000000  20.078983  11.937126   3.754908   # H_
 208 2 5   0.000000  19.221638  11.479196   0.848606   # H_
 209 2 5   0.000000   0.044472  10.891425   1.543795   # H_
 210 2 5   0.000000  20.434458  12.633270   1.426188   # H_
 211 1 6   0.000000   7.170619   0.000000   7.170619   # C_2
 212 1 10   0.000000   6.821605   0.000000   8.377615   # O_1
 213 1 10   0.000000   8.377623   0.000000   6.821632   # O_1
 214 1 8   0.000000   6.106631   0.000000   6.106606   # C_R
 215 1 8   0.000000   6.533645   0.000000   4.812611   # C_R
 216 2 9   0.000000   7.649648   0.000000   4.580624   # N_3
 217 1 5   0.000000   5.769669   0.000000   2.701603   # H_
 218 1 8   0.000000   5.537657   0.000000   3.817600   # C_R
 219 1 8   0.000000   4.243652   0.000000   4.243585   # C_R
 220 1 8   0.000000   3.817637   0.000000   5.537581   # C_R
 221 1 8   0.000000   4.812626   0.000000   6.533592   # C_R
 222 1 5   0.000000   4.580613   0.000000   7.649589   # H_
 223 1 5   0.000000   2.701634   0.000000   5.769568   # H_
 224 1 10   0.000000   1.972660   0.000000   3.528560   # O_1
 225 1 6   0.000000   3.179664   0.000000   3.179573   # C_2
 226 1 10   0.000000   3.528677   0.000000   1.972577   # O_1
 227 2 5   0.000000   8.320548   0.028081   5.368283   # H_
 228 2 7   0.000000   8.407769  20.631361   3.346669   # C_3
 229 2 5   0.000000   7.822728  20.233288   2.510327   # H_
 230 2 5   0.000000   9.235231  19.924219   3.488171   # H_
 231 2 7   0.000000   8.980886   1.304806   3.003878   # C_3
 232 2 5   0.000000   8.194231   2.067873   3.037696   # H_
 233 2 7   0.000000   9.621321   1.311600   1.625215   # C_3
 234 2 5   0.000000   9.728783   1.586926   3.754908   # H_
 235 2 5   0.000000   8.871438   1.128996   0.848606   # H_
 236 2 5   0.000000  10.394672   0.541225   1.543795   # H_
 237 2 5   0.000000  10.084258   2.283070   1.426188   # H_
 238 1 6   0.000000   7.170619  10.350200  17.520819   # C_2
 239 1 10   0.000000   6.821605  10.350200  18.727815   # O_1
 240 1 10   0.000000   8.377623  10.350200  17.171832   # O_1
 241 1 8   0.000000   6.106631  10.350200  16.456806   # C_R
 242 1 8   0.000000   6.533645  10.350200  15.162811   # C_R
 243 2 9   0.000000   7.649648  10.350200  14.930824   # N_3
 244 1 5   0.000000   5.769669  10.350200  13.051803   # H_
 245 1 8   0.000000   5.537657  10.350200  14.167800   # C_R
 246 1 8   0.000000   4.243652  10.350200  14.593785   # C_R
 247 1 8   0.000000   3.817637  10.350200  15.887781   # C_R
 248 1 8   0.000000   4.812626  10.350200  16.883792   # C_R
 249 1 5   0.000000   4.580613  10.350200  17.999789   # H_
 250 1 5   0.000000   2.701634  10.350200  16.119768   # H_
 251 1 10   0.000000   1.972660  10.350200  13.878760   # O_1
 252 1 6   0.000000   3.179664  10.350200  13.529773   # C_2
 253 1 10   0.000000   3.528677  10.350200  12.322777   # O_1
 254 2 5   0.000000   8.320548  10.378281  15.718483   # H_
 255 2 7   0.000000   8.407769  10.281161  13.696869   # C_3
 256 2 5   0.000000   7.822728   9.883088  12.860527   # H_
 257 2 5   0.000000   9.235231   9.574019  13.838371   # H_
 258 2 7   0.000000   8.980886  11.655006  13.354078   # C_3
 259 2 5   0.000000   8.194231  12.418073  13.387896   # H_
 260 2 7   0.000000   9.621321  11.661800  11.975415   # C_3
 261 2 5   0.000000   9.728783  11.937126  14.105108   # H_
 262 2 5   0.000000   8.871438  11.479196  11.198806   # H_
 263 2 5   0.000000  10.394672  10.891425  11.893995   # H_
 264 2 5   0.000000  10.084258  12.633270  11.776388   # H_
 265 1 6   0.000000  17.520819   3.179581   0.000000   # C_2
 266 1 10   0.000000  18.727815   3.528595  20.700400   # O_1
 267 1 10   0.000000  17.171832   1.972577   0.000000   # O_1
 268 1 8   0.000000  16.456806   4.243569  20.700400   # C_R
 269 1 8   0.000000  15.162811   3.816555   0.000000   # C_R
 270 2 9   0.000000  14.930824   2.700552   0.000000   # N_3
 271 1 5   0.000000  13.051803   4.580531   0.000000   # H_
 272 1 8   0.000000  14.167800   4.812543   0.000000   # C_R
 273 1 8   0.000000  14.593785   6.106548  20.700400   # C_R
 274 1 8   0.000000  15.887781   6.532563  20.700400   # C_R
 275 1 8   0.000000  16.883792   5.537574  20.700400   # C_R
 276 1 5   0.000000  17.999789   5.769587  20.700400   # H_
 277 1 5   0.000000  16.119768   7.648566  20.700400   # H_
 278 1 10   0.000000  13.878760   8.377540  20.700400   # O_1
 279 1 6   0.000000  13.529773   7.170536  20.700400   # C_2
 280 1 10   0.000000  12.322777   6.821523   0.000000   # O_1
 281 2 5   0.000000  15.718483   2.029652  20.672319   # H_
 282 2 7   0.000000  13.696869   1.942431   0.069039   # C_3
 283 2 5   0.000000  12.860527   2.527472   0.467112   # H_
 284 2 5   0.000000  13.838371   1.114969   0.776181   # H_
 285 2 7   0.000000  13.354078   1.369314  19.395594   # C_3
 286 2 5   0.000000  13.387896   2.155969  18.632527   # H_
 287 2 7   0.000000  11.975415   0.728879  19.388800   # C_3
 288 2 5   0.000000  14.105108   0.621417  19.113474   # H_
 289 2 5   0.000000  11.198806   1.478762  19.571404   # H_
 290 2 5   0.000000  11.893995  20.655928  20.159175   # H_
 291 2 5   0.000000  11.776388   0.265942  18.417330   # H_
 292 1 6   0.000000  17.520819  13.529781  10.350200   # C_2
 293 1 10   0.000000  18.727815  13.878795  10.350200   # O_1
 294 1 10   0.000000  17.171832  12.322777  10.350200   # O_1
 295 1 8   0.000000  16.456806  14.593769  10.350200   # C_R
 296 1 8   0.000000  15.162811  14.166755  10.350200   # C_R
 297 2 9   0.000000  14.930824  13.050752  10.350200   # N_3
 298 1 5   0.000000  13.051803  14.930731  10.350200   # H_
 299 1 8   0.000000  14.167800  15.162743  10.350200   # C_R
 300 1 8   0.000000  14.593785  16.456748  10.350200   # C_R
 301 1 8   0.000000  15.887781  16.882763  10.350200   # C_R
 302 1 8   0.000000  16.883792  15.887774  10.350200   # C_R
 303 1 5   0.000000  17.999789  16.119787  10.350200   # H_
 304 1 5   0.000000  16.119768  17.998766  10.350200   # H_
 305 1 10   0.000000  13.878760  18.727740  10.350200   # O_1
 306 1 6   0.000000  13.529773  17.520736  10.350200   # C_2
 307 1 10   0.000000  12.322777  17.171723  10.350200   # O_1
 308 2 5   0.000000  15.718483  12.379852  10.322119   # H_
 309 2 7   0.000000  13.696869  12.292631  10.419239   # C_3
 310 2 5   0.000000  12.860527  12.877672  10.817312   # H_
 311 2 5   0.000000  13.838371  11.465169  11.126381   # H_
 312 2 7   0.000000  13.354078  11.719514   9.045394   # C_3
 313 2 5   0.000000  13.387896  12.506169   8.282327   # H_
 314 2 7   0.000000  11.975415  11.079079   9.038600   # C_3
 315 2 5   0.000000  14.105108  10.971617   8.763274   # H_
 316 2 5   0.000000  11.198806  11.828962   9.221204   # H_
 317 2 5   0.000000  11.893995  10.305728   9.808975   # H_
 318 2 5   0.000000  11.776388  10.616142   8.067130   # H_
 319 1 6   0.000000   7.170619   3.179581  10.350200   # C_2
 320 1 10   0.000000   8.377615   3.528595  10.350200   # O_1
 321 1 10   0.000000   6.821632   1.972577  10.350200   # O_1
 322 1 8   0.000000   6.106606   4.243569  10.350200   # C_R
 323 1 8   0.000000   4.812611   3.816555  10.350200   # C_R
 324 2 9   0.000000   4.580624   2.700552  10.350200   # N_3
 325 1 5   0.000000   2.701603   4.580531  10.350200   # H_
 326 1 8   0.000000   3.817600   4.812543  10.350200   # C_R
 327 1 8   0.000000   4.243585   6.106548  10.350200   # C_R
 328 1 8   0.000000   5.537581   6.532563  10.350200   # C_R
 329 1 8   0.000000   6.533592   5.537574  10.350200   # C_R
 330 1 5   0.000000   7.649589   5.769587  10.350200   # H_
 331 1 5   0.000000   5.769568   7.648566  10.350200   # H_
 332 1 10   0.000000   3.528560   8.377540  10.350200   # O_1
 333 1 6   0.000000   3.179573   7.170536  10.350200   # C_2
 334 1 10   0.000000   1.972577   6.821523  10.350200   # O_1
 335 2 5   0.000000   5.368283   2.029652  10.322119   # H_
 336 2 7   0.000000   3.346669   1.942431  10.419239   # C_3
 337 2 5   0.000000   2.510327   2.527472  10.817312   # H_
 338 2 5   0.000000   3.488171   1.114969  11.126381   # H_
 339 2 7   0.000000   3.003878   1.369314   9.045394   # C_3
 340 2 5   0.000000   3.037696   2.155969   8.282327   # H_
 341 2 7   0.000000   1.625215   0.728879   9.038600   # C_3
 342 2 5   0.000000   3.754908   0.621417   8.763274   # H_
 343 2 5   0.000000   0.848606   1.478762   9.221204   # H_
 344 2 5   0.000000   1.543795  20.655928   9.808975   # H_
 345 2 5   0.000000   1.426188   0.265942   8.067130   # H_
 346 1 6   0.000000   7.170619  13.529781   0.000000   # C_2
 347 1 10   0.000000   8.377615  13.878795   0.000000   # O_1
 348 1 10   0.000000   6.821632  12.322777  20.700400   # O_1
 349 1 8   0.000000   6.106606  14.593769   0.000000   # C_R
 350 1 8   0.000000   4.812611  14.166755   0.000000   # C_R
 351 2 9   0.000000   4.580624  13.050752  20.700400   # N_3
 352 1 5   0.000000   2.701603  14.930731   0.000000   # H_
 353 1 8   0.000000   3.817600  15.162743   0.000000   # C_R
 354 1 8   0.000000   4.243585  16.456748   0.000000   # C_R
 355 1 8   0.000000   5.537581  16.882763   0.000000   # C_R
 356 1 8   0.000000   6.533592  15.887774   0.000000   # C_R
 357 1 5   0.000000   7.649589  16.119787   0.000000   # H_
 358 1 5   0.000000   5.769568  17.998766   0.000000   # H_
 359 1 10   0.000000   3.528560  18.727740   0.000000   # O_1
 360 1 6   0.000000   3.179573  17.520736   0.000000   # C_2
 361 1 10   0.000000   1.972577  17.171723   0.000000   # O_1
 362 2 5   0.000000   5.368283  12.379852  20.672319   # H_
 363 2 7   0.000000   3.346669  12.292631   0.069039   # C_3
 364 2 5   0.000000   2.510327  12.877672   0.467112   # H_
 365 2 5   0.000000   3.488171  11.465169   0.776181   # H_
 366 2 7   0.000000   3.003878  11.719514  19.395594   # C_3
 367 2 5   0.000000   3.037696  12.506169  18.632527   # H_
 368 2 7   0.000000   1.625215  11.079079  19.388800   # C_3
 369 2 5   0.000000   3.754908  10.971617  19.113474   # H_
 370 2 5   0.000000   0.848606  11.828962  19.571404   # H_
 371 2 5   0.000000   1.543795  10.305728  20.159175   # H_
 372 2 5   0.000000   1.426188  10.616142  18.417330   # H_
 373 1 6   0.000000  17.520819  17.520819   0.000000   # C_2
 374 1 10   0.000000  18.727815  17.171805  20.700400   # O_1
 375 1 10   0.000000  17.171832  18.727823   0.000000   # O_1
 376 1 8   0.000000  16.456806  16.456831   0.000000   # C_R
 377 1 8   0.000000  15.162811  16.883845   0.000000   # C_R
 378 2 9   0.000000  14.930824  17.999848   0.000000   # N_3
 379 1 5   0.000000  13.051803  16.119869   0.000000   # H_
 380 1 8   0.000000  14.167800  15.887857   0.000000   # C_R
 381 1 8   0.000000  14.593785  14.593852   0.000000   # C_R
 382 1 8   0.000000  15.887781  14.167837  20.700400   # C_R
 383 1 8   0.000000  16.883792  15.162826  20.700400   # C_R
 384 1 5   0.000000  17.999789  14.930813  20.700400   # H_
 385 1 5   0.000000  16.119768  13.051834  20.700400   # H_
 386 1 10   0.000000  13.878760  12.322860  20.700400   # O_1
 387 1 6   0.000000  13.529773  13.529864   0.000000   # C_2
 388 1 10   0.000000  12.322777  13.878877   0.000000   # O_1
 389 2 5   0.000000  15.718483  18.670748   0.028081   # H_
 390 2 7   0.000000  13.696869  18.757969  20.631361   # C_3
 391 2 5   0.000000  12.860527  18.172928  20.233288   # H_
 392 2 5   0.000000  13.838371  19.585431  19.924219   # H_
 393 2 7   0.000000  13.354078  19.331086   1.304806   # C_3
 394 2 5   0.000000  13.387896  18.544431   2.067873   # H_
 395 2 7   0.000000  11.975415  19.971521   1.311600   # C_3
 396 2 5   0.000000  14.105108  20.078983   1.586926   # H_
 397 2 5   0.000000  11.198806  19.221638   1.128996   # H_
 398 2 5   0.000000  11.893995   0.044472   0.541225   # H_
 399 2 5   0.000000  11.776388  20.434458   2.283070   # H_
 400 1 6   0.000000  17.520819   7.170619  10.350200   # C_2
 401 1 10   0.000000  18.727815   6.821605  10.350200   # O_1
 402 1 10   0.000000  17.171832   8.377623  10.350200   # O_1
 403 1 8   0.000000  16.456806   6.106631  10.350200   # C_R
 404 1 8   0.000000  15.162811   6.533645  10.350200   # C_R
 405 2 9   0.000000  14.930824   7.649648  10.350200   # N_3
 406 1 5   0.000000  13.051803   5.769669  10.350200   # H_
 407 1 8   0.000000  14.167800   5.537657  10.350200   # C_R
 408 1 8   0.000000  14.593785   4.243652  10.350200   # C_R
 409 1 8   0.000000  15.887781   3.817637  10.350200   # C_R
 410 1 8   0.000000  16.883792   4.812626  10.350200   # C_R
 411 1 5   0.000000  17.999789   4.580613  10.350200   # H_
 412 1 5   0.000000  16.119768   2.701634  10.350200   # H_
 413 1 10   0.000000  13.878760   1.972660  10.350200   # O_1
 414 1 6   0.000000  13.529773   3.179664  10.350200   # C_2
 415 1 10   0.000000  12.322777   3.528677  10.350200   # O_1
 416 2 5   0.000000  15.718483   8.320548  10.378281   # H_
 417 2 7   0.000000  13.696869   8.407769  10.281161   # C_3
 418 2 5   0.000000  12.860527   7.822728   9.883088   # H_
 419 2 5   0.000000  13.838371   9.235231   9.574019   # H_
 420 2 7   0.000000  13.354078   8.980886  11.655006   # C_3
 421 2 5   0.000000  13.387896   8.194231  12.418073   # H_
 422 2 7   0.000000  11.975415   9.621321  11.661800   # C_3
 423 2 5   0.000000  14.105108   9.728783  11.937126   # H_
 424 2 5   0.000000  11.198806   8.871438  11.479196   # H_
 425 2 5   0.000000  11.893995  10.394672  10.891425   # H_
 426 2 5   0.000000  11.776388  10.084258  12.633270   # H_
 427 1 6   0.000000   7.170619  17.520819  10.350200   # C_2
 428 1 10   0.000000   8.377615  17.171805  10.350200   # O_1
 429 1 10   0.000000   6.821632  18.727823  10.350200   # O_1
 430 1 8   0.000000   6.106606  16.456831  10.350200   # C_R
 431 1 8   0.000000   4.812611  16.883845  10.350200   # C_R
 432 2 9   0.000000   4.580624  17.999848  10.350200   # N_3
 433 1 5   0.000000   2.701603  16.119869  10.350200   # H_
 434 1 8   0.000000   3.817600  15.887857  10.350200   # C_R
 435 1 8   0.000000   4.243585  14.593852  10.350200   # C_R
 436 1 8   0.000000   5.537581  14.167837  10.350200   # C_R
 437 1 8   0.000000   6.533592  15.162826  10.350200   # C_R
 438 1 5   0.000000   7.649589  14.930813  10.350200   # H_
 439 1 5   0.000000   5.769568  13.051834  10.350200   # H_
 440 1 10   0.000000   3.528560  12.322860  10.350200   # O_1
 441 1 6   0.000000   3.179573  13.529864  10.350200   # C_2
 442 1 10   0.000000   1.972577  13.878877  10.350200   # O_1
 443 2 5   0.000000   5.368283  18.670748  10.378281   # H_
 444 2 7   0.000000   3.346669  18.757969  10.281161   # C_3
 445 2 5   0.000000   2.510327  18.172928   9.883088   # H_
 446 2 5   0.000000   3.488171  19.585431   9.574019   # H_
 447 2 7   0.000000   3.003878  19.331086  11.655006   # C_3
 448 2 5   0.000000   3.037696  18.544431  12.418073   # H_
 449 2 7   0.000000   1.625215  19.971521  11.661800   # C_3
 450 2 5   0.000000   3.754908  20.078983  11.937126   # H_
 451 2 5   0.000000   0.848606  19.221638  11.479196   # H_
 452 2 5   0.000000   1.543795   0.044472  10.891425   # H_
 453 2 5   0.000000   1.426188  20.434458  12.633270   # H_
 454 1 6   0.000000   7.170619   7.170619   0.000000   # C_2
 455 1 10   0.000000   8.377615   6.821605  20.700400   # O_1
 456 1 10   0.000000   6.821632   8.377623   0.000000   # O_1
 457 1 8   0.000000   6.106606   6.106631   0.000000   # C_R
 458 1 8   0.000000   4.812611   6.533645   0.000000   # C_R